 vasp.5.2.12 11Nov11 complex                                                    
  
 executed on             LinuxIFC date 2017.03.20  10:45:38
 running on   48 nodes
 distr:  one band on   12 nodes,    4 groups


--------------------------------------------------------------------------------------------------------


 INCAR:
 POTCAR:    PAW_PBE Mo 08Apr2002                  
 POTCAR:    PAW_PBE S 06Sep2000                   
 POTCAR:    PAW_PBE Se 06Sep2000                  
 POTCAR:    PAW_PBE W 08Apr2002                   
 POTCAR:    PAW_PBE Mo 08Apr2002                  
   VRHFIN =Mo: 4p5s4d                                                           
   LEXCH  = PE                                                                  
   EATOM  =   217.5176 eV,   15.9871 Ry                                         
                                                                                
   TITEL  = PAW_PBE Mo 08Apr2002                                                
   LULTRA =        F    use ultrasoft PP ?                                      
   IUNSCR =        1    unscreen: 0-lin 1-nonlin 2-no                           
   RPACOR =    2.200    partial core radius                                     
   POMASS =   95.940; ZVAL   =    6.000    mass and valenz                      
   RCORE  =    2.750    outmost cutoff radius                                   
   RWIGS  =    2.750; RWIGS  =    1.455    wigner-seitz radius (au A)           
   ENMAX  =  224.584; ENMIN  =  168.438 eV                                      
   RCLOC  =    2.111    cutoff for local pot                                    
   LCOR   =        T    correct aug charges                                     
   LPAW   =        T    paw PP                                                  
   EAUG   =  345.278                                                            
   DEXC   =    0.000                                                            
   RMAX   =    2.821    core radius for proj-oper                               
   RAUG   =    1.300    factor for augmentation sphere                          
   RDEP   =    2.815    radius for radial grids                                 
   RDEPT  =    2.211    core radius for aug-charge                              
                                                                                
   Atomic configuration                                                         
   12 entries                                                                   
     n  l   j            E        occ.                                          
     1  0  0.50    -19819.0341   2.0000                                         
     2  0  0.50     -2799.0127   2.0000                                         
     2  1  1.50     -2502.0276   6.0000                                         
     3  0  0.50      -476.4448   2.0000                                         
     3  1  1.50      -379.1496   6.0000                                         
     3  2  2.50      -220.9367  10.0000                                         
     4  0  0.50       -64.3378   2.0000                                         
     4  1  1.50       -38.4773   6.0000                                         
     4  2  2.50        -3.7535   5.0000                                         
     5  0  0.50        -4.0862   1.0000                                         
     5  1  0.50        -2.7701   0.0000                                         
     4  3  2.50        -1.3606   0.0000                                         
   Description                                                                  
     l       E           TYP  RCUT    TYP  RCUT                                 
     2     -3.7534765     23  2.500                                             
     2     -5.1140591     23  2.500                                             
     0     -4.0861560     23  2.600                                             
     0     13.6058260     23  2.600                                             
     1      5.4423304     23  2.750                                             
     1     27.2116520     23  2.750                                             
  local pseudopotential read in
  partial core-charges read in
  partial kinetic energy density read in
  atomic valenz-charges read in
  non local Contribution for L=           2  read in
    real space projection operators read in
  non local Contribution for L=           2  read in
    real space projection operators read in
  non local Contribution for L=           0  read in
    real space projection operators read in
  non local Contribution for L=           0  read in
    real space projection operators read in
  non local Contribution for L=           1  read in
    real space projection operators read in
  non local Contribution for L=           1  read in
    real space projection operators read in
    PAW grid and wavefunctions read in
 
   number of l-projection  operators is LMAX  =           6
   number of lm-projection operators is LMMAX =          18
 
 POTCAR:    PAW_PBE S 06Sep2000                   
   VRHFIN =S : s2p4                                                             
   LEXCH  = PE                                                                  
   EATOM  =   276.8230 eV,   20.3459 Ry                                         
                                                                                
   TITEL  = PAW_PBE S 06Sep2000                                                 
   LULTRA =        F    use ultrasoft PP ?                                      
   IUNSCR =        1    unscreen: 0-lin 1-nonlin 2-no                           
   RPACOR =    1.500    partial core radius                                     
   POMASS =   32.066; ZVAL   =    6.000    mass and valenz                      
   RCORE  =    1.900    outmost cutoff radius                                   
   RWIGS  =    2.200; RWIGS  =    1.164    wigner-seitz radius (au A)           
   ENMAX  =  258.689; ENMIN  =  194.016 eV                                      
   ICORE  =        2    local potential                                         
   LCOR   =        T    correct aug charges                                     
   LPAW   =        T    paw PP                                                  
   EAUG   =  335.092                                                            
   DEXC   =    0.000                                                            
   RMAX   =    1.942    core radius for proj-oper                               
   RAUG   =    1.300    factor for augmentation sphere                          
   RDEP   =    1.954    radius for radial grids                                 
   RDEPT  =    1.744    core radius for aug-charge                              
                                                                                
   Atomic configuration                                                         
    6 entries                                                                   
     n  l   j            E        occ.                                          
     1  0  0.50     -2405.8406   2.0000                                         
     2  0  0.50      -211.7007   2.0000                                         
     2  1  1.50      -156.4958   6.0000                                         
     3  0  0.50       -17.2562   2.0000                                         
     3  1  0.50        -7.0085   4.0000                                         
     3  2  1.50        -6.8029   0.0000                                         
   Description                                                                  
     l       E           TYP  RCUT    TYP  RCUT                                 
     0    -17.2561641     23  1.900                                             
     0    -15.8743224     23  1.900                                             
     1     -7.0085400     23  1.900                                             
     1     -2.7779785     23  1.900                                             
     2     -6.8029130     23  1.900                                             
  local pseudopotential read in
  partial core-charges read in
  partial kinetic energy density read in
  atomic valenz-charges read in
  non local Contribution for L=           0  read in
    real space projection operators read in
  non local Contribution for L=           0  read in
    real space projection operators read in
  non local Contribution for L=           1  read in
    real space projection operators read in
  non local Contribution for L=           1  read in
    real space projection operators read in
    PAW grid and wavefunctions read in
 
   number of l-projection  operators is LMAX  =           4
   number of lm-projection operators is LMMAX =           8
 
 POTCAR:    PAW_PBE Se 06Sep2000                  
   VRHFIN =Se: s2p4                                                             
   LEXCH  = PE                                                                  
   EATOM  =   257.1286 eV,   18.8984 Ry                                         
                                                                                
   TITEL  = PAW_PBE Se 06Sep2000                                                
   LULTRA =        F    use ultrasoft PP ?                                      
   IUNSCR =        1    unscreen: 0-lin 1-nonlin 2-no                           
   RPACOR =    1.900    partial core radius                                     
   POMASS =   78.960; ZVAL   =    6.000    mass and valenz                      
   RCORE  =    2.100    outmost cutoff radius                                   
   RWIGS  =    2.200; RWIGS  =    1.164    wigner-seitz radius (au A)           
   ENMAX  =  211.555; ENMIN  =  158.666 eV                                      
   ICORE  =        3    local potential                                         
   LCOR   =        T    correct aug charges                                     
   LPAW   =        T    paw PP                                                  
   EAUG   =  446.842                                                            
   DEXC   =    0.000                                                            
   RMAX   =    2.147    core radius for proj-oper                               
   RAUG   =    1.300    factor for augmentation sphere                          
   RDEP   =    2.177    radius for radial grids                                 
   RDEPT  =    1.928    core radius for aug-charge                              
                                                                                
   Atomic configuration                                                         
   10 entries                                                                   
     n  l   j            E        occ.                                          
     1  0  0.50    -12503.4787   2.0000                                         
     2  0  0.50     -1606.9547   2.0000                                         
     2  1  1.50     -1413.3140   6.0000                                         
     3  0  0.50      -213.4885   2.0000                                         
     3  1  1.50      -152.9538   6.0000                                         
     3  2  2.50       -53.1221  10.0000                                         
     4  0  0.50       -17.2865   2.0000                                         
     4  1  0.50        -6.5110   4.0000                                         
     4  2  2.50        -6.8029   0.0000                                         
     4  3  2.50        -6.8029   0.0000                                         
   Description                                                                  
     l       E           TYP  RCUT    TYP  RCUT                                 
     0    -17.2865377     23  2.100                                             
     0    -15.3094411     23  2.100                                             
     1     -6.5110275     23  2.100                                             
     1     -0.0695192     23  2.100                                             
     2     -6.8029130     23  2.100                                             
     3     -1.3605826      7  2.100                                             
  local pseudopotential read in
  partial core-charges read in
  partial kinetic energy density read in
  atomic valenz-charges read in
  non local Contribution for L=           0  read in
    real space projection operators read in
  non local Contribution for L=           0  read in
    real space projection operators read in
  non local Contribution for L=           1  read in
    real space projection operators read in
  non local Contribution for L=           1  read in
    real space projection operators read in
  non local Contribution for L=           2  read in
    real space projection operators read in
    PAW grid and wavefunctions read in
 
   number of l-projection  operators is LMAX  =           5
   number of lm-projection operators is LMMAX =          13
 
 POTCAR:    PAW_PBE W 08Apr2002                   
   VRHFIN =W : 6s5d                                                             
   LEXCH  = PE                                                                  
   EATOM  =   204.6103 eV,   15.0384 Ry                                         
                                                                                
   TITEL  = PAW_PBE W 08Apr2002                                                 
   LULTRA =        F    use ultrasoft PP ?                                      
   IUNSCR =        1    unscreen: 0-lin 1-nonlin 2-no                           
   RPACOR =    2.330    partial core radius                                     
   POMASS =  183.850; ZVAL   =    6.000    mass and valenz                      
   RCORE  =    2.750    outmost cutoff radius                                   
   RWIGS  =    2.750; RWIGS  =    1.455    wigner-seitz radius (au A)           
   ENMAX  =  223.057; ENMIN  =  167.293 eV                                      
   RCLOC  =    2.147    cutoff for local pot                                    
   LCOR   =        T    correct aug charges                                     
   LPAW   =        T    paw PP                                                  
   EAUG   =  373.438                                                            
   DEXC   =    0.000                                                            
   RMAX   =    2.801    core radius for proj-oper                               
   RAUG   =    1.300    factor for augmentation sphere                          
   RDEP   =    2.886    radius for radial grids                                 
   RDEPT  =    2.230    core radius for aug-charge                              
                                                                                
   Atomic configuration                                                         
   16 entries                                                                   
     n  l   j            E        occ.                                          
     1  0  0.50    -69465.5836   2.0000                                         
     2  0  0.50    -11986.2642   2.0000                                         
     2  1  1.50    -10479.8616   6.0000                                         
     3  0  0.50     -2759.0758   2.0000                                         
     3  1  1.50     -2313.1857   6.0000                                         
     3  2  2.50     -1801.1185  10.0000                                         
     4  0  0.50      -567.6791   2.0000                                         
     4  1  1.50      -421.4694   6.0000                                         
     4  2  2.50      -236.3473  10.0000                                         
     4  3  3.50       -31.2666  14.0000                                         
     5  0  0.50       -77.1085   2.0000                                         
     5  1  1.50       -41.3856   6.0000                                         
     5  2  2.50        -3.3185   5.0000                                         
     6  0  0.50        -5.1438   1.0000                                         
     6  1  0.50        -3.8096   0.0000                                         
     5  3  2.50        -1.3606   0.0000                                         
   Description                                                                  
     l       E           TYP  RCUT    TYP  RCUT                                 
     2     -3.3185288     23  2.500                                             
     2     -1.5965414     23  2.500                                             
     0     -5.1438054     23  2.500                                             
     0      4.9117504     23  2.500                                             
     1      2.7211652     23  2.750                                             
     1     27.2116520     23  2.750                                             
  local pseudopotential read in
  partial core-charges read in
  partial kinetic energy density read in
  atomic valenz-charges read in
  non local Contribution for L=           2  read in
    real space projection operators read in
  non local Contribution for L=           2  read in
    real space projection operators read in
  non local Contribution for L=           0  read in
    real space projection operators read in
  non local Contribution for L=           0  read in
    real space projection operators read in
  non local Contribution for L=           1  read in
    real space projection operators read in
  non local Contribution for L=           1  read in
    real space projection operators read in
    PAW grid and wavefunctions read in
 
   number of l-projection  operators is LMAX  =           6
   number of lm-projection operators is LMMAX =          18
 
  PAW_PBE Mo 08Apr2002                  :
 energy of atom  1       EATOM= -217.5176
 kinetic energy error for atom=    0.0114 (will be added to EATOM!!)
  PAW_PBE S 06Sep2000                   :
 energy of atom  2       EATOM= -276.8230
 kinetic energy error for atom=    0.0055 (will be added to EATOM!!)
  PAW_PBE Se 06Sep2000                  :
 energy of atom  3       EATOM= -257.1286
 kinetic energy error for atom=    0.0038 (will be added to EATOM!!)
  PAW_PBE W 08Apr2002                   :
 energy of atom  4       EATOM= -204.6103
 kinetic energy error for atom=    0.0109 (will be added to EATOM!!)
 
 
 POSCAR: Mo  S Se  W                             
  positions in direct lattice
  velocities in cartesian coordinates
 exchange correlation table for  LEXCH =        8
   RHO(1)=    0.500       N(1)  =     2000
   RHO(2)=  100.500       N(2)  =     4000
 


--------------------------------------------------------------------------------------------------------


 ion  position               nearest neighbor table
   1  0.667  0.333  0.322-   4 2.41   4 2.41   4 2.41   3 2.41   3 2.41   3 2.41
   2  0.667  0.333  0.680-   7 2.51   7 2.51   7 2.51   8 2.51   8 2.51   8 2.51
   3  1.000  0.000  0.277-   1 2.41   1 2.41   1 2.41
   4  1.000  0.000  0.367-   1 2.41   1 2.41   1 2.41
   5  0.667  0.333  0.454-   9 2.41   9 2.41   9 2.41
   6  0.667  0.333  0.543-   9 2.41   9 2.41   9 2.41
   7  1.000  0.000  0.631-   2 2.51   2 2.51   2 2.51
   8  1.000  0.000  0.729-   2 2.51   2 2.51   2 2.51
   9  1.000  0.000  0.498-   6 2.41   6 2.41   6 2.41   5 2.41   5 2.41   5 2.41
 
  LATTYP: Found a hexagonal cell.
 ALAT       =     3.1850000000
 C/A-ratio  =    10.9890109890
  
  Lattice vectors:
  
 A1 = (   3.1850000000,   0.0000000000,   0.0000000000)
 A2 = (  -1.5925000000,   2.7582909111,   0.0000000000)
 A3 = (   0.0000000000,   0.0000000000,  35.0000000000)
 Subroutine PRICEL returns:
 Original cell was already a primitive cell.
 

Analysis of symmetry for initial positions (statically):

 Routine SETGRP: Setting up the symmetry group for a 
 hexagonal supercell.


 Subroutine GETGRP returns: Found  6 space group operations
 (whereof  6 operations were pure point group operations)
 out of a pool of 24 trial point group operations.


The static configuration has the point symmetry C_3v.

Analysis of symmetry for dynamics (positions and initial velocities):

 Subroutine DYNSYM returns: Found  6 space group operations
 (whereof  6 operations were pure point group operations)
 out of a pool of  6 trial space group operations
 (whereof  6 operations were pure point group operations)
 and found also     1 'primitive' translations


The dynamic configuration has the point symmetry C_3v.
 
 
 KPOINTS: Monkhorst-Pack                          
  interpolating k-points between supplied coordinates
  k-points in reciprocal lattice


--------------------------------------------------------------------------------------------------------




 Dimension of arrays:
   k-points           NKPTS =     90   k-points in BZ     NKDIM =     90   number of bands    NBANDS=     48
   number of dos      NEDOS =    301   number of ions     NIONS =      9
   non local maximal  LDIM  =      6   non local SUM 2l+1 LMDIM =     18
   total plane-waves  NPLWV =  84000
   max r-space proj   IRMAX =      1   max aug-charges    IRDMAX=   7810
   dimension x,y,z NGX =    20 NGY =   20 NGZ =  210
   dimension x,y,z NGXF=    30 NGYF=   30 NGZF=  324
   support grid    NGXF=    30 NGYF=   30 NGZF=  324
   ions per type =               2   4   2   1
 NGX,Y,Z   is equivalent  to a cutoff of  10.44, 10.44,  9.97 a.u.
 NGXF,Y,Z  is equivalent  to a cutoff of  15.66, 15.66, 15.39 a.u.


 I would recommend the setting:
   dimension x,y,z NGX =    19 NGY =   19 NGZ =  205
 SYSTEM =  Mo S                                    
 POSCAR =  Mo  S Se  W                             

 Startparameter for this run:
   NWRITE =      2    write-flag & timer
   PREC   = high      normal or accurate (medium, high low for compatibility)
   ISTART =      0    job   : 0-new  1-cont  2-samecut
   ICHARG =     11    charge: 1-file 2-atom 10-const
   ISPIN  =      1    spin polarized calculation?
   LNONCOLLINEAR =      F non collinear calculations
   LSORBIT =      F    spin-orbit coupling
   INIWAV =      1    electr: 0-lowe 1-rand  2-diag
   LASPH  =      F    aspherical Exc in radial PAW
   METAGGA=      F    non-selfconsistent MetaGGA calc.

 Electronic Relaxation 1
   ENCUT  =  323.4 eV  23.77 Ry    4.88 a.u.   4.67  4.67 51.32*2*pi/ulx,y,z
   ENINI  =  323.4     initial cutoff
   ENAUG  =  446.8 eV  augmentation charge cutoff
   NELM   =    120;   NELMIN=  4; NELMDL= -5     # of ELM steps 
   EDIFF  = 0.1E-06   stopping-criterion for ELM
   LREAL  =      F    real-space projection
   NLSPLINE    = F    spline interpolate recip. space projectors
   LCOMPAT=      F    compatible to vasp.4.4
   GGA_COMPAT  = T    GGA compatible to vasp.4.4-vasp.4.6
   LMAXPAW     = -100 max onsite density
   LMAXMIX     =    2 max onsite mixed and CHGCAR
   VOSKOWN=      0    Vosko Wilk Nusair interpolation
   ROPT   =    0.00000   0.00000   0.00000   0.00000
 Ionic relaxation
   EDIFFG = 0.1E-05   stopping-criterion for IOM
   NSW    =      0    number of steps for IOM
   NBLOCK =      1;   KBLOCK =      1    inner block; outer block 
   IBRION =     -1    ionic relax: 0-MD 1-quasi-New 2-CG
   NFREE  =      0    steps in history (QN), initial steepest desc. (CG)
   ISIF   =      2    stress and relaxation
   IWAVPR =     10    prediction:  0-non 1-charg 2-wave 3-comb
   ISYM   =      2    0-nonsym 1-usesym 2-fastsym
   LCORR  =      T    Harris-Foulkes like correction to forces

   POTIM  = 0.5000    time-step for ionic-motion
   TEIN   =    0.0    initial temperature
   TEBEG  =    0.0;   TEEND  =   0.0 temperature during run
   SMASS  =  -3.00    Nose mass-parameter (am)
   estimated Nose-frequenzy (Omega)   =  0.10E-29 period in steps =****** mass=  -0.232E-27a.u.
   SCALEE = 1.0000    scale energy and forces
   NPACO  =    256;   APACO  = 16.0  distance and # of slots for P.C.
   PSTRESS=    0.0 pullay stress

  Mass of Ions in am
   POMASS =  95.94 32.07 78.96183.85
  Ionic Valenz
   ZVAL   =   6.00  6.00  6.00  6.00
  Atomic Wigner-Seitz radii
   RWIGS  =  -1.00 -1.00 -1.00 -1.00
  virtual crystal weights 
   VCA    =   1.00  1.00  1.00  1.00
   NELECT =      54.0000    total number of electrons
   NUPDOWN=      -1.0000    fix difference up-down

 DOS related values:
   EMIN   =  10.00;   EMAX   =-10.00  energy-range for DOS
   EFERMI =   0.00
   ISMEAR =     0;   SIGMA  =   0.10  broadening in eV -4-tet -1-fermi 0-gaus

 Electronic relaxation 2 (details)
   IALGO  =     68    algorithm
   LDIAG  =      T    sub-space diagonalisation (order eigenvalues)
   LSUBROT=      T    optimize rotation matrix (better conditioning)
   TURBO    =      0    0=normal 1=particle mesh
   IRESTART =      0    0=no restart 2=restart with 2 vectors
   NREBOOT  =      0    no. of reboots
   NMIN     =      0    reboot dimension
   EREF     =   0.00    reference energy to select bands
   IMIX   =      4    mixing-type and parameters
     AMIX     =   0.40;   BMIX     =  1.00
     AMIX_MAG =   1.60;   BMIX_MAG =  1.00
     AMIN     =   0.10
     WC   =   100.;   INIMIX=   1;  MIXPRE=   1

 Intra band minimization:
   WEIMIN = 0.0000     energy-eigenvalue tresh-hold
   EBREAK =  0.52E-09  absolut break condition
   DEPER  =   0.30     relativ break condition  

   TIME   =   0.40     timestep for ELM

  volume/ion in A,a.u.               =      34.16       230.55
  Fermi-wavevector in a.u.,A,eV,Ry     =   0.916784  1.732470 11.435594  0.840492
  Thomas-Fermi vector in A             =   2.041678
 
 Write flags
   LWAVE  =      F    write WAVECAR
   LCHARG =      F    write CHGCAR
   LVTOT  =      F    write LOCPOT, total local potential
   LVHAR  =      F    write LOCPOT, Hartree potential only
   LELF   =      F    write electronic localiz. function (ELF)
   LORBIT =     11    0 simple, 1 ext, 2 COOP (PROOUT)


 Dipole corrections
   LMONO  =      F    monopole corrections only (constant potential shift)
   LDIPOL =      F    correct potential (dipole corrections)
   IDIPOL =      0    1-x, 2-y, 3-z, 4-all directions 
   EPSILON=  1.0000000 bulk dielectric constant

 Exchange correlation treatment:
   GGA     =    --    GGA type
   LEXCH   =     8    internal setting for exchange type
   VOSKOWN=      0    Vosko Wilk Nusair interpolation
   LHFCALC =     F    Hartree Fock is set to
   LHFONE  =     F    Hartree Fock one center treatment
   AEXX    =    0.0000 exact exchange contribution

 Linear response parameters
   LEPSILON=     F    determine dielectric tensor
   LRPA    =     F    only Hartree local field effects (RPA)
   LNABLA  =     F    use nabla operator in PAW spheres
   LVEL    =     F    velocity operator in full k-point grid
   LINTERFAST=   F  fast interpolation
   KINTER  =     0    interpolate to denser k-point grid
   CSHIFT  =0.1000    complex shift for real part using Kramers Kronig
   OMEGAMAX=  -1.0    maximum frequency
   RTIME   =    0.100 relaxation time in fs

 Orbital magnetization related:
   ORBITALMAG=     F  switch on orbital magnetization
   LCHIMAG   =     F  perturbation theory with respect to B field
   DQ        =  0.001000  dq finite difference perturbation B field



--------------------------------------------------------------------------------------------------------


 Static calculation
 charge density and potential remain constant during run
 non-spin polarized calculation
 RMM-DIIS sequential band-by-band and
  variant of blocked Davidson during initial phase
 perform sub-space diagonalisation
    before iterative eigenvector-optimisation
 no mixing
 using additional bands           21
 reciprocal scheme for non local part
 use partial core corrections
 calculate Harris-corrections to forces 
   (improved forces if not selfconsistent)
 use gradient corrections 
 WARNING: stress and forces are not correct
  (second derivative of E(xc) not defined)
 use of overlap-Matrix (Vanderbilt PP)
 Gauss-broadening in eV      SIGMA  =   0.10


--------------------------------------------------------------------------------------------------------


  energy-cutoff  :      323.36
  volume of cell :      307.48
      direct lattice vectors                 reciprocal lattice vectors
     3.185000000  0.000000000  0.000000000     0.313971743  0.181271670  0.000000000
    -1.592500000  2.758290911  0.000000000     0.000000000  0.362543340  0.000000000
     0.000000000  0.000000000 35.000000000     0.000000000  0.000000000  0.028571429

  length of vectors
     3.185000000  3.185000000 35.000000000     0.362543340  0.362543340  0.028571429


 
 k-points in units of 2pi/SCALE and weight: Monkhorst-Pack                          
   0.15698587  0.09063584  0.00000000       0.011
   0.15157257  0.08751046  0.00000000       0.011
   0.14615926  0.08438509  0.00000000       0.011
   0.14074595  0.08125971  0.00000000       0.011
   0.13533265  0.07813434  0.00000000       0.011
   0.12991934  0.07500897  0.00000000       0.011
   0.12450604  0.07188359  0.00000000       0.011
   0.11909273  0.06875822  0.00000000       0.011
   0.11367942  0.06563285  0.00000000       0.011
   0.10826612  0.06250747  0.00000000       0.011
   0.10285281  0.05938210  0.00000000       0.011
   0.09743951  0.05625673  0.00000000       0.011
   0.09202620  0.05313135  0.00000000       0.011
   0.08661289  0.05000598  0.00000000       0.011
   0.08119959  0.04688060  0.00000000       0.011
   0.07578628  0.04375523  0.00000000       0.011
   0.07037298  0.04062986  0.00000000       0.011
   0.06495967  0.03750448  0.00000000       0.011
   0.05954636  0.03437911  0.00000000       0.011
   0.05413306  0.03125374  0.00000000       0.011
   0.04871975  0.02812836  0.00000000       0.011
   0.04330645  0.02500299  0.00000000       0.011
   0.03789314  0.02187762  0.00000000       0.011
   0.03247984  0.01875224  0.00000000       0.011
   0.02706653  0.01562687  0.00000000       0.011
   0.02165322  0.01250149  0.00000000       0.011
   0.01623992  0.00937612  0.00000000       0.011
   0.01082661  0.00625075  0.00000000       0.011
   0.00541331  0.00312537  0.00000000       0.011
   0.00000000  0.00000000  0.00000000       0.011
   0.00000000  0.00000000  0.00000000       0.011
   0.00360887  0.00625075  0.00000000       0.011
   0.00721774  0.01250149  0.00000000       0.011
   0.01082661  0.01875224  0.00000000       0.011
   0.01443548  0.02500299  0.00000000       0.011
   0.01804435  0.03125374  0.00000000       0.011
   0.02165322  0.03750448  0.00000000       0.011
   0.02526209  0.04375523  0.00000000       0.011
   0.02887096  0.05000598  0.00000000       0.011
   0.03247984  0.05625673  0.00000000       0.011
   0.03608871  0.06250747  0.00000000       0.011
   0.03969758  0.06875822  0.00000000       0.011
   0.04330645  0.07500897  0.00000000       0.011
   0.04691532  0.08125971  0.00000000       0.011
   0.05052419  0.08751046  0.00000000       0.011
   0.05413306  0.09376121  0.00000000       0.011
   0.05774193  0.10001196  0.00000000       0.011
   0.06135080  0.10626270  0.00000000       0.011
   0.06495967  0.11251345  0.00000000       0.011
   0.06856854  0.11876420  0.00000000       0.011
   0.07217741  0.12501494  0.00000000       0.011
   0.07578628  0.13126569  0.00000000       0.011
   0.07939515  0.13751644  0.00000000       0.011
   0.08300402  0.14376719  0.00000000       0.011
   0.08661289  0.15001793  0.00000000       0.011
   0.09022177  0.15626868  0.00000000       0.011
   0.09383064  0.16251943  0.00000000       0.011
   0.09743951  0.16877018  0.00000000       0.011
   0.10104838  0.17502092  0.00000000       0.011
   0.10465725  0.18127167  0.00000000       0.011
   0.10465725  0.18127167  0.00000000       0.011
   0.10646168  0.17814630  0.00000000       0.011
   0.10826612  0.17502092  0.00000000       0.011
   0.11007055  0.17189555  0.00000000       0.011
   0.11187499  0.16877018  0.00000000       0.011
   0.11367942  0.16564480  0.00000000       0.011
   0.11548386  0.16251943  0.00000000       0.011
   0.11728829  0.15939405  0.00000000       0.011
   0.11909273  0.15626868  0.00000000       0.011
   0.12089717  0.15314331  0.00000000       0.011
   0.12270160  0.15001793  0.00000000       0.011
   0.12450604  0.14689256  0.00000000       0.011
   0.12631047  0.14376719  0.00000000       0.011
   0.12811491  0.14064181  0.00000000       0.011
   0.12991934  0.13751644  0.00000000       0.011
   0.13172378  0.13439107  0.00000000       0.011
   0.13352821  0.13126569  0.00000000       0.011
   0.13533265  0.12814032  0.00000000       0.011
   0.13713708  0.12501494  0.00000000       0.011
   0.13894152  0.12188957  0.00000000       0.011
   0.14074595  0.11876420  0.00000000       0.011
   0.14255039  0.11563882  0.00000000       0.011
   0.14435482  0.11251345  0.00000000       0.011
   0.14615926  0.10938808  0.00000000       0.011
   0.14796369  0.10626270  0.00000000       0.011
   0.14976813  0.10313733  0.00000000       0.011
   0.15157257  0.10001196  0.00000000       0.011
   0.15337700  0.09688658  0.00000000       0.011
   0.15518144  0.09376121  0.00000000       0.011
   0.15698587  0.09063584  0.00000000       0.011
 
 k-points in reciprocal lattice and weights: Monkhorst-Pack                          
   0.50000000  0.00000000  0.00000000       0.011
   0.48275862  0.00000000  0.00000000       0.011
   0.46551724  0.00000000  0.00000000       0.011
   0.44827586  0.00000000  0.00000000       0.011
   0.43103448  0.00000000  0.00000000       0.011
   0.41379310  0.00000000  0.00000000       0.011
   0.39655172  0.00000000  0.00000000       0.011
   0.37931034  0.00000000  0.00000000       0.011
   0.36206897  0.00000000  0.00000000       0.011
   0.34482759  0.00000000  0.00000000       0.011
   0.32758621  0.00000000  0.00000000       0.011
   0.31034483  0.00000000  0.00000000       0.011
   0.29310345  0.00000000  0.00000000       0.011
   0.27586207  0.00000000  0.00000000       0.011
   0.25862069  0.00000000  0.00000000       0.011
   0.24137931  0.00000000  0.00000000       0.011
   0.22413793  0.00000000  0.00000000       0.011
   0.20689655  0.00000000  0.00000000       0.011
   0.18965517  0.00000000  0.00000000       0.011
   0.17241379  0.00000000  0.00000000       0.011
   0.15517241  0.00000000  0.00000000       0.011
   0.13793103  0.00000000  0.00000000       0.011
   0.12068966  0.00000000  0.00000000       0.011
   0.10344828  0.00000000  0.00000000       0.011
   0.08620690  0.00000000  0.00000000       0.011
   0.06896552  0.00000000  0.00000000       0.011
   0.05172414  0.00000000  0.00000000       0.011
   0.03448276  0.00000000  0.00000000       0.011
   0.01724138  0.00000000  0.00000000       0.011
   0.00000000  0.00000000  0.00000000       0.011
   0.00000000  0.00000000  0.00000000       0.011
   0.01149425  0.01149425  0.00000000       0.011
   0.02298851  0.02298851  0.00000000       0.011
   0.03448276  0.03448276  0.00000000       0.011
   0.04597701  0.04597701  0.00000000       0.011
   0.05747126  0.05747126  0.00000000       0.011
   0.06896552  0.06896552  0.00000000       0.011
   0.08045977  0.08045977  0.00000000       0.011
   0.09195402  0.09195402  0.00000000       0.011
   0.10344828  0.10344828  0.00000000       0.011
   0.11494253  0.11494253  0.00000000       0.011
   0.12643678  0.12643678  0.00000000       0.011
   0.13793103  0.13793103  0.00000000       0.011
   0.14942529  0.14942529  0.00000000       0.011
   0.16091954  0.16091954  0.00000000       0.011
   0.17241379  0.17241379  0.00000000       0.011
   0.18390805  0.18390805  0.00000000       0.011
   0.19540230  0.19540230  0.00000000       0.011
   0.20689655  0.20689655  0.00000000       0.011
   0.21839080  0.21839080  0.00000000       0.011
   0.22988506  0.22988506  0.00000000       0.011
   0.24137931  0.24137931  0.00000000       0.011
   0.25287356  0.25287356  0.00000000       0.011
   0.26436782  0.26436782  0.00000000       0.011
   0.27586207  0.27586207  0.00000000       0.011
   0.28735632  0.28735632  0.00000000       0.011
   0.29885057  0.29885057  0.00000000       0.011
   0.31034483  0.31034483  0.00000000       0.011
   0.32183908  0.32183908  0.00000000       0.011
   0.33333333  0.33333333  0.00000000       0.011
   0.33333333  0.33333333  0.00000000       0.011
   0.33908046  0.32183908  0.00000000       0.011
   0.34482759  0.31034483  0.00000000       0.011
   0.35057471  0.29885057  0.00000000       0.011
   0.35632184  0.28735632  0.00000000       0.011
   0.36206897  0.27586207  0.00000000       0.011
   0.36781609  0.26436782  0.00000000       0.011
   0.37356322  0.25287356  0.00000000       0.011
   0.37931034  0.24137931  0.00000000       0.011
   0.38505747  0.22988506  0.00000000       0.011
   0.39080460  0.21839080  0.00000000       0.011
   0.39655172  0.20689655  0.00000000       0.011
   0.40229885  0.19540230  0.00000000       0.011
   0.40804598  0.18390805  0.00000000       0.011
   0.41379310  0.17241379  0.00000000       0.011
   0.41954023  0.16091954  0.00000000       0.011
   0.42528736  0.14942529  0.00000000       0.011
   0.43103448  0.13793103  0.00000000       0.011
   0.43678161  0.12643678  0.00000000       0.011
   0.44252874  0.11494253  0.00000000       0.011
   0.44827586  0.10344828  0.00000000       0.011
   0.45402299  0.09195402  0.00000000       0.011
   0.45977011  0.08045977  0.00000000       0.011
   0.46551724  0.06896552  0.00000000       0.011
   0.47126437  0.05747126  0.00000000       0.011
   0.47701149  0.04597701  0.00000000       0.011
   0.48275862  0.03448276  0.00000000       0.011
   0.48850575  0.02298851  0.00000000       0.011
   0.49425287  0.01149425  0.00000000       0.011
   0.50000000  0.00000000  0.00000000       0.011
 
 position of ions in fractional coordinates (direct lattice) 
   0.66666667  0.33333333  0.32197421
   0.66666667  0.33333333  0.67982642
   1.00000000  0.00000000  0.27738061
   1.00000000  0.00000000  0.36652371
   0.66666667  0.33333333  0.45357895
   0.66666667  0.33333333  0.54282812
   1.00000000  0.00000000  0.63087318
   1.00000000  0.00000000  0.72880972
   1.00000000  0.00000000  0.49820509
 
 position of ions in cartesian coordinates  (Angst):
   1.59250000  0.91943030 11.26909733
   1.59250000  0.91943030 23.79392456
   3.18500000  0.00000000  9.70832124
   3.18500000  0.00000000 12.82832991
   1.59250000  0.91943030 15.87526320
   1.59250000  0.91943030 18.99898412
   3.18500000  0.00000000 22.08056120
   3.18500000  0.00000000 25.50834016
   3.18500000  0.00000000 17.43717828
 


--------------------------------------------------------------------------------------------------------


 k-point  1 :  0.50000.00000.0000  plane waves:    4064
 k-point  2 :  0.48280.00000.0000  plane waves:    4066
 k-point  3 :  0.46550.00000.0000  plane waves:    4058
 k-point  4 :  0.44830.00000.0000  plane waves:    4058
 k-point  5 :  0.43100.00000.0000  plane waves:    4062
 k-point  6 :  0.41380.00000.0000  plane waves:    4066
 k-point  7 :  0.39660.00000.0000  plane waves:    4068
 k-point  8 :  0.37930.00000.0000  plane waves:    4072
 k-point  9 :  0.36210.00000.0000  plane waves:    4080
 k-point 10 :  0.34480.00000.0000  plane waves:    4056
 k-point 11 :  0.32760.00000.0000  plane waves:    4066
 k-point 12 :  0.31030.00000.0000  plane waves:    4064
 k-point 13 :  0.29310.00000.0000  plane waves:    4086
 k-point 14 :  0.27590.00000.0000  plane waves:    4070
 k-point 15 :  0.25860.00000.0000  plane waves:    4076
 k-point 16 :  0.24140.00000.0000  plane waves:    4082
 k-point 17 :  0.22410.00000.0000  plane waves:    4078
 k-point 18 :  0.20690.00000.0000  plane waves:    4078
 k-point 19 :  0.18970.00000.0000  plane waves:    4082
 k-point 20 :  0.17240.00000.0000  plane waves:    4084
 k-point 21 :  0.15520.00000.0000  plane waves:    4096
 k-point 22 :  0.13790.00000.0000  plane waves:    4088
 k-point 23 :  0.12070.00000.0000  plane waves:    4086
 k-point 24 :  0.10340.00000.0000  plane waves:    4070
 k-point 25 :  0.08620.00000.0000  plane waves:    4062
 k-point 26 :  0.06900.00000.0000  plane waves:    4088
 k-point 27 :  0.05170.00000.0000  plane waves:    4088
 k-point 28 :  0.03450.00000.0000  plane waves:    4095
 k-point 29 :  0.01720.00000.0000  plane waves:    4089
 k-point 30 :  0.00000.00000.0000  plane waves:    4099
 k-point 31 :  0.00000.00000.0000  plane waves:    4099
 k-point 32 :  0.01150.01150.0000  plane waves:    4091
 k-point 33 :  0.02300.02300.0000  plane waves:    4095
 k-point 34 :  0.03450.03450.0000  plane waves:    4089
 k-point 35 :  0.04600.04600.0000  plane waves:    4091
 k-point 36 :  0.05750.05750.0000  plane waves:    4083
 k-point 37 :  0.06900.06900.0000  plane waves:    4083
 k-point 38 :  0.08050.08050.0000  plane waves:    4093
 k-point 39 :  0.09200.09200.0000  plane waves:    4095
 k-point 40 :  0.10340.10340.0000  plane waves:    4099
 k-point 41 :  0.11490.11490.0000  plane waves:    4091
 k-point 42 :  0.12640.12640.0000  plane waves:    4081
 k-point 43 :  0.13790.13790.0000  plane waves:    4075
 k-point 44 :  0.14940.14940.0000  plane waves:    4073
 k-point 45 :  0.16090.16090.0000  plane waves:    4071
 k-point 46 :  0.17240.17240.0000  plane waves:    4065
 k-point 47 :  0.18390.18390.0000  plane waves:    4067
 k-point 48 :  0.19540.19540.0000  plane waves:    4085
 k-point 49 :  0.20690.20690.0000  plane waves:    4077
 k-point 50 :  0.21840.21840.0000  plane waves:    4071
 k-point 51 :  0.22990.22990.0000  plane waves:    4069
 k-point 52 :  0.24140.24140.0000  plane waves:    4059
 k-point 53 :  0.25290.25290.0000  plane waves:    4047
 k-point 54 :  0.26440.26440.0000  plane waves:    4037
 k-point 55 :  0.27590.27590.0000  plane waves:    4029
 k-point 56 :  0.28740.28740.0000  plane waves:    4019
 k-point 57 :  0.29890.29890.0000  plane waves:    4009
 k-point 58 :  0.31030.31030.0000  plane waves:    4001
 k-point 59 :  0.32180.32180.0000  plane waves:    3997
 k-point 60 :  0.33330.33330.0000  plane waves:    3981
 k-point 61 :  0.33330.33330.0000  plane waves:    3981
 k-point 62 :  0.33910.32180.0000  plane waves:    3982
 k-point 63 :  0.34480.31030.0000  plane waves:    3982
 k-point 64 :  0.35060.29890.0000  plane waves:    3990
 k-point 65 :  0.35630.28740.0000  plane waves:    4002
 k-point 66 :  0.36210.27590.0000  plane waves:    3998
 k-point 67 :  0.36780.26440.0000  plane waves:    4002
 k-point 68 :  0.37360.25290.0000  plane waves:    4002
 k-point 69 :  0.37930.24140.0000  plane waves:    4002
 k-point 70 :  0.38510.22990.0000  plane waves:    4012
 k-point 71 :  0.39080.21840.0000  plane waves:    4020
 k-point 72 :  0.39660.20690.0000  plane waves:    4024
 k-point 73 :  0.40230.19540.0000  plane waves:    4024
 k-point 74 :  0.40800.18390.0000  plane waves:    4018
 k-point 75 :  0.41380.17240.0000  plane waves:    4014
 k-point 76 :  0.41950.16090.0000  plane waves:    4018
 k-point 77 :  0.42530.14940.0000  plane waves:    4026
 k-point 78 :  0.43100.13790.0000  plane waves:    4028
 k-point 79 :  0.43680.12640.0000  plane waves:    4034
 k-point 80 :  0.44250.11490.0000  plane waves:    4046
 k-point 81 :  0.44830.10340.0000  plane waves:    4050
 k-point 82 :  0.45400.09200.0000  plane waves:    4046
 k-point 83 :  0.45980.08050.0000  plane waves:    4054
 k-point 84 :  0.46550.06900.0000  plane waves:    4056
 k-point 85 :  0.47130.05750.0000  plane waves:    4052
 k-point 86 :  0.47700.04600.0000  plane waves:    4066
 k-point 87 :  0.48280.03450.0000  plane waves:    4068
 k-point 88 :  0.48850.02300.0000  plane waves:    4060
 k-point 89 :  0.49430.01150.0000  plane waves:    4064
 k-point 90 :  0.50000.00000.0000  plane waves:    4064

 maximum and minimum number of plane-waves per node :       356      315

 maximum number of plane-waves:      4099
 maximum index in each direction: 
   IXMAX=    4   IYMAX=    4   IZMAX=   51
   IXMIN=   -5   IYMIN=   -5   IZMIN=  -51

 NGX is ok and might be reduce to  20
 NGY is ok and might be reduce to  20
 NGZ is ok and might be reduce to 206

 parallel 3D FFT for wavefunctions:
    minimum data exchange during FFTs selected (reduces bandwidth)
 parallel 3D FFT for charge:
    minimum data exchange during FFTs selected (reduces bandwidth)


 total amount of memory used by VASP on root node    56636. kBytes
========================================================================

   base      :      30000. kBytes
   nonl-proj :      18506. kBytes
   fftplans  :        579. kBytes
   grid      :       1039. kBytes
   one-center:         15. kBytes
   wavefun   :       6497. kBytes
 
 initial charge density was supplied:
 number of electron      54.0000062 magnetization 
 keeping initial charge density in first step


--------------------------------------------------------------------------------------------------------


 Maximum index for augmentation-charges          388 (set IRDMAX)


--------------------------------------------------------------------------------------------------------


 First call to EWALD:  gamma=   0.263
 Maximum number of real-space cells 6x 6x 1
 Maximum number of reciprocal cells 2x 2x12

    FEWALD:  cpu time    0.00: real time    0.00


----------------------------------------- Iteration    1(   1)  ---------------------------------------


    POTLOK:  cpu time    0.02: real time    0.02
    SETDIJ:  cpu time    0.00: real time    0.00
     EDDAV:  cpu time    4.72: real time    4.73
       DOS:  cpu time    0.00: real time    0.00
    --------------------------------------------
      LOOP:  cpu time    4.75: real time    4.76

 eigenvalue-minimisations  :  8744
 total energy-change (2. order) : 0.2521861E+03  (-0.1622066E+04)
 number of electron      54.0000062 magnetization 
 augmentation part       54.0000062 magnetization 

 Free energy of the ion-electron system (eV)
  ---------------------------------------------------
  alpha Z        PSCENC =        99.60307831
  Ewald energy   TEWEN  =     17600.28855367
  -1/2 Hartree   DENC   =    -19878.79288676
  -exchange  EXHF       =         0.00000000
  -V(xc)+E(xc)   XCENC  =      -117.33871767
  PAW double counting   =      5000.05566231    -4763.45526589
  entropy T*S    EENTRO =        -0.02149501
  eigenvalues    EBANDS =        50.71585826
  atomic energy  EATOM  =      2261.13135802
  ---------------------------------------------------
  free energy    TOTEN  =       252.18614523 eV

  energy without entropy =      252.20764024  energy(sigma->0) =      252.19689273


--------------------------------------------------------------------------------------------------------




----------------------------------------- Iteration    1(   2)  ---------------------------------------


     EDDAV:  cpu time    4.03: real time    4.03
       DOS:  cpu time    0.00: real time    0.00
    --------------------------------------------
      LOOP:  cpu time    4.03: real time    4.04

 eigenvalue-minimisations  : 11688
 total energy-change (2. order) :-0.2905355E+03  (-0.2710133E+03)
 number of electron      54.0000062 magnetization 
 augmentation part       54.0000062 magnetization 

 Free energy of the ion-electron system (eV)
  ---------------------------------------------------
  alpha Z        PSCENC =        99.60307831
  Ewald energy   TEWEN  =     17600.28855367
  -1/2 Hartree   DENC   =    -19878.79288676
  -exchange  EXHF       =         0.00000000
  -V(xc)+E(xc)   XCENC  =      -117.33871767
  PAW double counting   =      5000.05566231    -4763.45526589
  entropy T*S    EENTRO =        -0.00020398
  eigenvalues    EBANDS =      -239.84090555
  atomic energy  EATOM  =      2261.13135802
  ---------------------------------------------------
  free energy    TOTEN  =       -38.34932754 eV

  energy without entropy =      -38.34912356  energy(sigma->0) =      -38.34922555


--------------------------------------------------------------------------------------------------------




----------------------------------------- Iteration    1(   3)  ---------------------------------------


     EDDAV:  cpu time    3.56: real time    3.56
       DOS:  cpu time    0.00: real time    0.00
    --------------------------------------------
      LOOP:  cpu time    3.56: real time    3.56

 eigenvalue-minimisations  : 10720
 total energy-change (2. order) :-0.2520820E+02  (-0.2462791E+02)
 number of electron      54.0000062 magnetization 
 augmentation part       54.0000062 magnetization 

 Free energy of the ion-electron system (eV)
  ---------------------------------------------------
  alpha Z        PSCENC =        99.60307831
  Ewald energy   TEWEN  =     17600.28855367
  -1/2 Hartree   DENC   =    -19878.79288676
  -exchange  EXHF       =         0.00000000
  -V(xc)+E(xc)   XCENC  =      -117.33871767
  PAW double counting   =      5000.05566231    -4763.45526589
  entropy T*S    EENTRO =        -0.00000000
  eigenvalues    EBANDS =      -265.04930582
  atomic energy  EATOM  =      2261.13135802
  ---------------------------------------------------
  free energy    TOTEN  =       -63.55752384 eV

  energy without entropy =      -63.55752384  energy(sigma->0) =      -63.55752384


--------------------------------------------------------------------------------------------------------




----------------------------------------- Iteration    1(   4)  ---------------------------------------


     EDDAV:  cpu time    3.67: real time    3.67
       DOS:  cpu time    0.00: real time    0.00
    --------------------------------------------
      LOOP:  cpu time    3.67: real time    3.68

 eigenvalue-minimisations  : 11192
 total energy-change (2. order) :-0.5805254E+00  (-0.5793422E+00)
 number of electron      54.0000062 magnetization 
 augmentation part       54.0000062 magnetization 

 Free energy of the ion-electron system (eV)
  ---------------------------------------------------
  alpha Z        PSCENC =        99.60307831
  Ewald energy   TEWEN  =     17600.28855367
  -1/2 Hartree   DENC   =    -19878.79288676
  -exchange  EXHF       =         0.00000000
  -V(xc)+E(xc)   XCENC  =      -117.33871767
  PAW double counting   =      5000.05566231    -4763.45526589
  entropy T*S    EENTRO =        -0.00000000
  eigenvalues    EBANDS =      -265.62983121
  atomic energy  EATOM  =      2261.13135802
  ---------------------------------------------------
  free energy    TOTEN  =       -64.13804922 eV

  energy without entropy =      -64.13804922  energy(sigma->0) =      -64.13804922


--------------------------------------------------------------------------------------------------------




----------------------------------------- Iteration    1(   5)  ---------------------------------------


     EDDAV:  cpu time    3.66: real time    3.66
       DOS:  cpu time    0.00: real time    0.00
    --------------------------------------------
      LOOP:  cpu time    3.67: real time    3.67

 eigenvalue-minimisations  : 11144
 total energy-change (2. order) :-0.1533095E-01  (-0.1532813E-01)
 number of electron      54.0000062 magnetization 
 augmentation part       54.0000062 magnetization 

 Free energy of the ion-electron system (eV)
  ---------------------------------------------------
  alpha Z        PSCENC =        99.60307831
  Ewald energy   TEWEN  =     17600.28855367
  -1/2 Hartree   DENC   =    -19878.79288676
  -exchange  EXHF       =         0.00000000
  -V(xc)+E(xc)   XCENC  =      -117.33871767
  PAW double counting   =      5000.05566231    -4763.45526589
  entropy T*S    EENTRO =        -0.00000000
  eigenvalues    EBANDS =      -265.64516216
  atomic energy  EATOM  =      2261.13135802
  ---------------------------------------------------
  free energy    TOTEN  =       -64.15338018 eV

  energy without entropy =      -64.15338018  energy(sigma->0) =      -64.15338018


--------------------------------------------------------------------------------------------------------




----------------------------------------- Iteration    1(   6)  ---------------------------------------


    EDDIAG:  cpu time    0.63: real time    0.63
  RMM-DIIS:  cpu time    1.58: real time    1.58
    ORTHCH:  cpu time    0.19: real time    0.19
       DOS:  cpu time    0.00: real time    0.00
    --------------------------------------------
      LOOP:  cpu time    2.40: real time    2.41

 eigenvalue-minimisations  :  9265
 total energy-change (2. order) :-0.5497024E-03  (-0.5497024E-03)
 number of electron      54.0000062 magnetization 
 augmentation part       54.0000062 magnetization 

 Free energy of the ion-electron system (eV)
  ---------------------------------------------------
  alpha Z        PSCENC =        99.60307831
  Ewald energy   TEWEN  =     17600.28855367
  -1/2 Hartree   DENC   =    -19878.79288676
  -exchange  EXHF       =         0.00000000
  -V(xc)+E(xc)   XCENC  =      -117.33871767
  PAW double counting   =      5000.05566231    -4763.45526589
  entropy T*S    EENTRO =        -0.00000000
  eigenvalues    EBANDS =      -265.64571186
  atomic energy  EATOM  =      2261.13135802
  ---------------------------------------------------
  free energy    TOTEN  =       -64.15392988 eV

  energy without entropy =      -64.15392988  energy(sigma->0) =      -64.15392988


--------------------------------------------------------------------------------------------------------




----------------------------------------- Iteration    1(   7)  ---------------------------------------


    EDDIAG:  cpu time    0.63: real time    0.63
  RMM-DIIS:  cpu time    2.25: real time    2.25
    ORTHCH:  cpu time    0.19: real time    0.19
       DOS:  cpu time    0.00: real time    0.00
    --------------------------------------------
      LOOP:  cpu time    3.08: real time    3.08

 eigenvalue-minimisations  : 13627
 total energy-change (2. order) :-0.5925543E-04  (-0.5932889E-04)
 number of electron      54.0000062 magnetization 
 augmentation part       54.0000062 magnetization 

 Free energy of the ion-electron system (eV)
  ---------------------------------------------------
  alpha Z        PSCENC =        99.60307831
  Ewald energy   TEWEN  =     17600.28855367
  -1/2 Hartree   DENC   =    -19878.79288676
  -exchange  EXHF       =         0.00000000
  -V(xc)+E(xc)   XCENC  =      -117.33871767
  PAW double counting   =      5000.05566231    -4763.45526589
  entropy T*S    EENTRO =        -0.00000000
  eigenvalues    EBANDS =      -265.64577112
  atomic energy  EATOM  =      2261.13135802
  ---------------------------------------------------
  free energy    TOTEN  =       -64.15398914 eV

  energy without entropy =      -64.15398914  energy(sigma->0) =      -64.15398914


--------------------------------------------------------------------------------------------------------




----------------------------------------- Iteration    1(   8)  ---------------------------------------


    EDDIAG:  cpu time    0.63: real time    0.63
  RMM-DIIS:  cpu time    1.65: real time    1.66
    ORTHCH:  cpu time    0.19: real time    0.19
       DOS:  cpu time    0.00: real time    0.00
    --------------------------------------------
      LOOP:  cpu time    2.48: real time    2.48

 eigenvalue-minimisations  :  9769
 total energy-change (2. order) : 0.5290312E-06  (-0.1004329E-06)
 number of electron      54.0000062 magnetization 
 augmentation part       54.0000062 magnetization 

 Free energy of the ion-electron system (eV)
  ---------------------------------------------------
  alpha Z        PSCENC =        99.60307831
  Ewald energy   TEWEN  =     17600.28855367
  -1/2 Hartree   DENC   =    -19878.79288676
  -exchange  EXHF       =         0.00000000
  -V(xc)+E(xc)   XCENC  =      -117.33871767
  PAW double counting   =      5000.05566231    -4763.45526589
  entropy T*S    EENTRO =        -0.00000000
  eigenvalues    EBANDS =      -265.64577059
  atomic energy  EATOM  =      2261.13135802
  ---------------------------------------------------
  free energy    TOTEN  =       -64.15398861 eV

  energy without entropy =      -64.15398861  energy(sigma->0) =      -64.15398861


--------------------------------------------------------------------------------------------------------




----------------------------------------- Iteration    1(   9)  ---------------------------------------


    EDDIAG:  cpu time    0.63: real time    0.63
WARNING in EDDRMM: call to ZHEGV failed, returncode =   8  4 11
WARNING in EDDRMM: call to ZHEGV failed, returncode =   8  4 11
  RMM-DIIS:  cpu time    1.39: real time    1.39
    ORTHCH:  cpu time    0.19: real time    0.19
       DOS:  cpu time    0.00: real time    0.00
    --------------------------------------------
      LOOP:  cpu time    2.22: real time    2.23

 eigenvalue-minimisations  :  8011
 total energy-change (2. order) :-0.1457374E-07  (-0.1464924E-07)
 number of electron      54.0000062 magnetization 
 augmentation part       54.0000062 magnetization 

 Free energy of the ion-electron system (eV)
  ---------------------------------------------------
  alpha Z        PSCENC =        99.60307831
  Ewald energy   TEWEN  =     17600.28855367
  -1/2 Hartree   DENC   =    -19878.79288676
  -exchange  EXHF       =         0.00000000
  -V(xc)+E(xc)   XCENC  =      -117.33871767
  PAW double counting   =      5000.05566231    -4763.45526589
  entropy T*S    EENTRO =        -0.00000000
  eigenvalues    EBANDS =      -265.64577060
  atomic energy  EATOM  =      2261.13135802
  ---------------------------------------------------
  free energy    TOTEN  =       -64.15398862 eV

  energy without entropy =      -64.15398862  energy(sigma->0) =      -64.15398862


--------------------------------------------------------------------------------------------------------




 average (electrostatic) potential at core
  the test charge radii are     1.2296  0.9698  1.0808  1.1823
  (the norm of the test charge is              1.0000)
       1 -43.4923       2 -42.6431       3 -91.3444       4 -91.3586       5 -91.3465
       6 -91.3541       7 -57.5454       8 -57.5359       9 -45.6138
 
 
 
 E-fermi :   1.0819     XC(G=0):  -6.1090     alpha+bet : -6.2607


 k-point   1 :       0.5000    0.0000    0.0000
  band No.  band energies     occupation 
      1     -12.5919      2.00000
      2     -12.3455      2.00000
      3     -12.2672      2.00000
      4     -12.0853      2.00000
      5     -11.8455      2.00000
      6     -11.7635      2.00000
      7      -6.3965      2.00000
      8      -5.8145      2.00000
      9      -5.4445      2.00000
     10      -5.1047      2.00000
     11      -4.8924      2.00000
     12      -4.6887      2.00000
     13      -4.3659      2.00000
     14      -4.0370      2.00000
     15      -3.3393      2.00000
     16      -3.3164      2.00000
     17      -3.2178      2.00000
     18      -2.0564      2.00000
     19      -2.0300      2.00000
     20      -1.9112      2.00000
     21      -1.6371      2.00000
     22      -1.1965      2.00000
     23      -1.0145      2.00000
     24      -0.8365      2.00000
     25      -0.6982      2.00000
     26      -0.2262      2.00000
     27       0.3149      2.00000
     28       2.1269      0.00000
     29       2.6403      0.00000
     30       2.8902      0.00000
     31       2.9176      0.00000
     32       3.0953      0.00000
     33       3.4104      0.00000
     34       3.7642      0.00000
     35       4.0760      0.00000
     36       4.1935      0.00000
     37       4.5830      0.00000
     38       4.6737      0.00000
     39       4.9305      0.00000
     40       5.2692      0.00000
     41       6.1497      0.00000
     42       6.3383      0.00000
     43       7.4678      0.00000
     44       7.8614      0.00000
     45       8.1561      0.00000
     46       8.2532      0.00000
     47       8.6338      0.00000
     48       8.8160      0.00000

 k-point   2 :       0.4828    0.0000    0.0000
  band No.  band energies     occupation 
      1     -12.6005      2.00000
      2     -12.3524      2.00000
      3     -12.2705      2.00000
      4     -12.0881      2.00000
      5     -11.8545      2.00000
      6     -11.7688      2.00000
      7      -6.3872      2.00000
      8      -5.8074      2.00000
      9      -5.4313      2.00000
     10      -5.0975      2.00000
     11      -4.8856      2.00000
     12      -4.6794      2.00000
     13      -4.3621      2.00000
     14      -4.0335      2.00000
     15      -3.3377      2.00000
     16      -3.3127      2.00000
     17      -3.2143      2.00000
     18      -2.0561      2.00000
     19      -2.0261      2.00000
     20      -1.9078      2.00000
     21      -1.6341      2.00000
     22      -1.2000      2.00000
     23      -1.0190      2.00000
     24      -0.8461      2.00000
     25      -0.7047      2.00000
     26      -0.2336      2.00000
     27       0.3119      2.00000
     28       2.1257      0.00000
     29       2.6334      0.00000
     30       2.8870      0.00000
     31       2.9133      0.00000
     32       3.0823      0.00000
     33       3.3948      0.00000
     34       3.7608      0.00000
     35       4.0753      0.00000
     36       4.1915      0.00000
     37       4.5802      0.00000
     38       4.6727      0.00000
     39       4.9284      0.00000
     40       5.2916      0.00000
     41       6.1759      0.00000
     42       6.3648      0.00000
     43       7.4715      0.00000
     44       7.8542      0.00000
     45       8.1477      0.00000
     46       8.2517      0.00000
     47       8.5717      0.00000
     48       8.8109      0.00000

 k-point   3 :       0.4655    0.0000    0.0000
  band No.  band energies     occupation 
      1     -12.6258      2.00000
      2     -12.3730      2.00000
      3     -12.2804      2.00000
      4     -12.0964      2.00000
      5     -11.8814      2.00000
      6     -11.7845      2.00000
      7      -6.3597      2.00000
      8      -5.7864      2.00000
      9      -5.3924      2.00000
     10      -5.0761      2.00000
     11      -4.8655      2.00000
     12      -4.6519      2.00000
     13      -4.3505      2.00000
     14      -4.0232      2.00000
     15      -3.3331      2.00000
     16      -3.3015      2.00000
     17      -3.2036      2.00000
     18      -2.0546      2.00000
     19      -2.0146      2.00000
     20      -1.8976      2.00000
     21      -1.6250      2.00000
     22      -1.2105      2.00000
     23      -1.0324      2.00000
     24      -0.8732      2.00000
     25      -0.7240      2.00000
     26      -0.2553      2.00000
     27       0.3027      2.00000
     28       2.1221      0.00000
     29       2.6133      0.00000
     30       2.8765      0.00000
     31       2.9019      0.00000
     32       3.0448      0.00000
     33       3.3521      0.00000
     34       3.7499      0.00000
     35       4.0715      0.00000
     36       4.1856      0.00000
     37       4.5709      0.00000
     38       4.6696      0.00000
     39       4.9220      0.00000
     40       5.3579      0.00000
     41       6.2519      0.00000
     42       6.4430      0.00000
     43       7.4831      0.00000
     44       7.8375      0.00000
     45       8.1245      0.00000
     46       8.2414      0.00000
     47       8.4969      0.00000
     48       8.7826      0.00000

 k-point   4 :       0.4483    0.0000    0.0000
  band No.  band energies     occupation 
      1     -12.6671      2.00000
      2     -12.4066      2.00000
      3     -12.2968      2.00000
      4     -12.1101      2.00000
      5     -11.9251      2.00000
      6     -11.8100      2.00000
      7      -6.3147      2.00000
      8      -5.7521      2.00000
      9      -5.3290      2.00000
     10      -5.0407      2.00000
     11      -4.8329      2.00000
     12      -4.6085      2.00000
     13      -4.3300      2.00000
     14      -4.0070      2.00000
     15      -3.3261      2.00000
     16      -3.2830      2.00000
     17      -3.1861      2.00000
     18      -2.0510      2.00000
     19      -1.9953      2.00000
     20      -1.8814      2.00000
     21      -1.6097      2.00000
     22      -1.2282      2.00000
     23      -1.0547      2.00000
     24      -0.9136      2.00000
     25      -0.7550      2.00000
     26      -0.2896      2.00000
     27       0.2871      2.00000
     28       2.1170      0.00000
     29       2.5813      0.00000
     30       2.8571      0.00000
     31       2.8873      0.00000
     32       2.9863      0.00000
     33       3.2915      0.00000
     34       3.7299      0.00000
     35       4.0608      0.00000
     36       4.1758      0.00000
     37       4.5532      0.00000
     38       4.6643      0.00000
     39       4.9115      0.00000
     40       5.4645      0.00000
     41       6.3697      0.00000
     42       6.5689      0.00000
     43       7.5022      0.00000
     44       7.8197      0.00000
     45       8.0934      0.00000
     46       8.2134      0.00000
     47       8.4147      0.00000
     48       8.7514      0.00000

 k-point   5 :       0.4310    0.0000    0.0000
  band No.  band energies     occupation 
      1     -12.7232      2.00000
      2     -12.4526      2.00000
      3     -12.3194      2.00000
      4     -12.1288      2.00000
      5     -11.9842      2.00000
      6     -11.8447      2.00000
      7      -6.2536      2.00000
      8      -5.7056      2.00000
      9      -5.2435      2.00000
     10      -4.9919      2.00000
     11      -4.7893      2.00000
     12      -4.5535      2.00000
     13      -4.2979      2.00000
     14      -3.9859      2.00000
     15      -3.3178      2.00000
     16      -3.2572      2.00000
     17      -3.1616      2.00000
     18      -2.0442      2.00000
     19      -1.9686      2.00000
     20      -1.8596      2.00000
     21      -1.5882      2.00000
     22      -1.2532      2.00000
     23      -1.0859      2.00000
     24      -0.9613      2.00000
     25      -0.7955      2.00000
     26      -0.3337      2.00000
     27       0.2646      2.00000
     28       2.1111      0.00000
     29       2.5397      0.00000
     30       2.8289      0.00000
     31       2.8728      0.00000
     32       2.9122      0.00000
     33       3.2222      0.00000
     34       3.6995      0.00000
     35       4.0402      0.00000
     36       4.1617      0.00000
     37       4.5250      0.00000
     38       4.6563      0.00000
     39       4.8965      0.00000
     40       5.6059      0.00000
     41       6.5194      0.00000
     42       6.7350      0.00000
     43       7.5279      0.00000
     44       7.8067      0.00000
     45       8.0622      0.00000
     46       8.1698      0.00000
     47       8.3431      0.00000
     48       8.7300      0.00000

 k-point   6 :       0.4138    0.0000    0.0000
  band No.  band energies     occupation 
      1     -12.7926      2.00000
      2     -12.5098      2.00000
      3     -12.3480      2.00000
      4     -12.1525      2.00000
      5     -12.0565      2.00000
      6     -11.8876      2.00000
      7      -6.1781      2.00000
      8      -5.6482      2.00000
      9      -5.1394      2.00000
     10      -4.9299      2.00000
     11      -4.7373      2.00000
     12      -4.4935      2.00000
     13      -4.2487      2.00000
     14      -3.9616      2.00000
     15      -3.3092      2.00000
     16      -3.2242      2.00000
     17      -3.1303      2.00000
     18      -2.0333      2.00000
     19      -1.9344      2.00000
     20      -1.8325      2.00000
     21      -1.5601      2.00000
     22      -1.2857      2.00000
     23      -1.1260      2.00000
     24      -1.0100      2.00000
     25      -0.8413      2.00000
     26      -0.3839      2.00000
     27       0.2347      2.00000
     28       2.1058      0.00000
     29       2.4906      0.00000
     30       2.7947      0.00000
     31       2.8280      0.00000
     32       2.8599      0.00000
     33       3.1505      0.00000
     34       3.6585      0.00000
     35       4.0082      0.00000
     36       4.1431      0.00000
     37       4.4853      0.00000
     38       4.6451      0.00000
     39       4.8773      0.00000
     40       5.7752      0.00000
     41       6.6909      0.00000
     42       6.9306      0.00000
     43       7.5560      0.00000
     44       7.7955      0.00000
     45       8.0329      0.00000
     46       8.1345      0.00000
     47       8.2803      0.00000
     48       8.7103      0.00000

 k-point   7 :       0.3966    0.0000    0.0000
  band No.  band energies     occupation 
      1     -12.8735      2.00000
      2     -12.5771      2.00000
      3     -12.3826      2.00000
      4     -12.1812      2.00000
      5     -12.1391      2.00000
      6     -11.9376      2.00000
      7      -6.0905      2.00000
      8      -5.5816      2.00000
      9      -5.0214      2.00000
     10      -4.8552      2.00000
     11      -4.6811      2.00000
     12      -4.4348      2.00000
     13      -4.1765      2.00000
     14      -3.9354      2.00000
     15      -3.3017      2.00000
     16      -3.1842      2.00000
     17      -3.0923      2.00000
     18      -2.0171      2.00000
     19      -1.8930      2.00000
     20      -1.8000      2.00000
     21      -1.5252      2.00000
     22      -1.3257      2.00000
     23      -1.1748      2.00000
     24      -1.0534      2.00000
     25      -0.8877      2.00000
     26      -0.4354      2.00000
     27       0.1968      2.00000
     28       2.1024      0.00000
     29       2.4361      0.00000
     30       2.7389      0.00000
     31       2.7580      0.00000
     32       2.8501      0.00000
     33       3.0804      0.00000
     34       3.6071      0.00000
     35       3.9647      0.00000
     36       4.1197      0.00000
     37       4.4332      0.00000
     38       4.6300      0.00000
     39       4.8538      0.00000
     40       5.9649      0.00000
     41       6.8732      0.00000
     42       7.1413      0.00000
     43       7.5740      0.00000
     44       7.7672      0.00000
     45       8.0191      0.00000
     46       8.1349      0.00000
     47       8.2417      0.00000
     48       8.6726      0.00000

 k-point   8 :       0.3793    0.0000    0.0000
  band No.  band energies     occupation 
      1     -12.9640      2.00000
      2     -12.6530      2.00000
      3     -12.4235      2.00000
      4     -12.2351      2.00000
      5     -12.2081      2.00000
      6     -11.9938      2.00000
      7      -5.9936      2.00000
      8      -5.5079      2.00000
      9      -4.8972      2.00000
     10      -4.7678      2.00000
     11      -4.6260      2.00000
     12      -4.3760      2.00000
     13      -4.0808      2.00000
     14      -3.9077      2.00000
     15      -3.2966      2.00000
     16      -3.1372      2.00000
     17      -3.0478      2.00000
     18      -1.9949      2.00000
     19      -1.8445      2.00000
     20      -1.7617      2.00000
     21      -1.4832      2.00000
     22      -1.3733      2.00000
     23      -1.2319      2.00000
     24      -1.0862      2.00000
     25      -0.9291      2.00000
     26      -0.4834      2.00000
     27       0.1507      2.00000
     28       2.1019      0.00000
     29       2.3782      0.00000
     30       2.6498      0.00000
     31       2.7213      0.00000
     32       2.8448      0.00000
     33       3.0135      0.00000
     34       3.5459      0.00000
     35       3.9102      0.00000
     36       4.0914      0.00000
     37       4.3692      0.00000
     38       4.6099      0.00000
     39       4.8266      0.00000
     40       6.1680      0.00000
     41       7.0535      0.00000
     42       7.3437      0.00000
     43       7.5586      0.00000
     44       7.7133      0.00000
     45       8.0516      0.00000
     46       8.1826      0.00000
     47       8.2457      0.00000
     48       8.6493      0.00000

 k-point   9 :       0.3621    0.0000    0.0000
  band No.  band energies     occupation 
      1     -13.0624      2.00000
      2     -12.7360      2.00000
      3     -12.4725      2.00000
      4     -12.3278      2.00000
      5     -12.2451      2.00000
      6     -12.0547      2.00000
      7      -5.8907      2.00000
      8      -5.4294      2.00000
      9      -4.7783      2.00000
     10      -4.6746      2.00000
     11      -4.5688      2.00000
     12      -4.3084      2.00000
     13      -3.9742      2.00000
     14      -3.8717      2.00000
     15      -3.2942      2.00000
     16      -3.0837      2.00000
     17      -2.9970      2.00000
     18      -1.9659      2.00000
     19      -1.7893      2.00000
     20      -1.7167      2.00000
     21      -1.4337      2.00000
     22      -1.4283      2.00000
     23      -1.2969      2.00000
     24      -1.1038      2.00000
     25      -0.9600      2.00000
     26      -0.5227      2.00000
     27       0.0961      2.00000
     28       2.1056      0.00000
     29       2.3187      0.00000
     30       2.5646      0.00000
     31       2.6875      0.00000
     32       2.8461      0.00000
     33       2.9509      0.00000
     34       3.4756      0.00000
     35       3.8460      0.00000
     36       4.0577      0.00000
     37       4.2935      0.00000
     38       4.5838      0.00000
     39       4.7958      0.00000
     40       6.3776      0.00000
     41       7.2119      0.00000
     42       7.4501      0.00000
     43       7.5173      0.00000
     44       7.7045      0.00000
     45       8.1357      0.00000
     46       8.2724      0.00000
     47       8.3110      0.00000
     48       8.4881      0.00000

 k-point  10 :       0.3448    0.0000    0.0000
  band No.  band energies     occupation 
      1     -13.1667      2.00000
      2     -12.8247      2.00000
      3     -12.5344      2.00000
      4     -12.4179      2.00000
      5     -12.2833      2.00000
      6     -12.1191      2.00000
      7      -5.7866      2.00000
      8      -5.3485      2.00000
      9      -4.6799      2.00000
     10      -4.6052      2.00000
     11      -4.4755      2.00000
     12      -4.2256      2.00000
     13      -3.9036      2.00000
     14      -3.7866      2.00000
     15      -3.2933      2.00000
     16      -3.0235      2.00000
     17      -2.9401      2.00000
     18      -1.9298      2.00000
     19      -1.7279      2.00000
     20      -1.6646      2.00000
     21      -1.4900      2.00000
     22      -1.3760      2.00000
     23      -1.3691      2.00000
     24      -1.1035      2.00000
     25      -0.9756      2.00000
     26      -0.5489      2.00000
     27       0.0332      2.00000
     28       2.1148      0.00000
     29       2.2596      0.00000
     30       2.4866      0.00000
     31       2.6590      0.00000
     32       2.8555      0.00000
     33       2.8927      0.00000
     34       3.3976      0.00000
     35       3.7737      0.00000
     36       4.0185      0.00000
     37       4.2074      0.00000
     38       4.5503      0.00000
     39       4.7624      0.00000
     40       6.5873      0.00000
     41       7.2844      0.00000
     42       7.3580      0.00000
     43       7.5352      0.00000
     44       7.8267      0.00000
     45       8.2419      0.00000
     46       8.3218      0.00000
     47       8.3970      0.00000
     48       8.7572      0.00000

 k-point  11 :       0.3276    0.0000    0.0000
  band No.  band energies     occupation 
      1     -13.2753      2.00000
      2     -12.9176      2.00000
      3     -12.6166      2.00000
      4     -12.4943      2.00000
      5     -12.3236      2.00000
      6     -12.1860      2.00000
      7      -5.6878      2.00000
      8      -5.2683      2.00000
      9      -4.6327      2.00000
     10      -4.5333      2.00000
     11      -4.3456      2.00000
     12      -4.1297      2.00000
     13      -3.8740      2.00000
     14      -3.6506      2.00000
     15      -3.2898      2.00000
     16      -2.9572      2.00000
     17      -2.8773      2.00000
     18      -1.8868      2.00000
     19      -1.6626      2.00000
     20      -1.6050      2.00000
     21      -1.5564      2.00000
     22      -1.4476      2.00000
     23      -1.3096      2.00000
     24      -1.0840      2.00000
     25      -0.9724      2.00000
     26      -0.5590      2.00000
     27      -0.0376      2.00000
     28       2.1299      0.00000
     29       2.2028      0.00000
     30       2.4181      0.00000
     31       2.6373      0.00000
     32       2.8387      0.00000
     33       2.8738      0.00000
     34       3.3138      0.00000
     35       3.6950      0.00000
     36       3.9735      0.00000
     37       4.1122      0.00000
     38       4.5081      0.00000
     39       4.7266      0.00000
     40       6.7902      0.00000
     41       7.1999      0.00000
     42       7.2393      0.00000
     43       7.6386      0.00000
     44       7.9610      0.00000
     45       8.1281      0.00000
     46       8.4289      0.00000
     47       8.5103      0.00000
     48       8.6979      0.00000

 k-point  12 :       0.3103    0.0000    0.0000
  band No.  band energies     occupation 
      1     -13.3866      2.00000
      2     -13.0133      2.00000
      3     -12.7163      2.00000
      4     -12.5570      2.00000
      5     -12.3658      2.00000
      6     -12.2537      2.00000
      7      -5.6038      2.00000
      8      -5.1915      2.00000
      9      -4.6203      2.00000
     10      -4.4448      2.00000
     11      -4.2120      2.00000
     12      -4.0286      2.00000
     13      -3.8464      2.00000
     14      -3.4999      2.00000
     15      -3.2755      2.00000
     16      -2.8851      2.00000
     17      -2.8091      2.00000
     18      -1.8370      2.00000
     19      -1.6458      2.00000
     20      -1.5746      2.00000
     21      -1.5384      2.00000
     22      -1.5310      2.00000
     23      -1.2338      2.00000
     24      -1.0451      2.00000
     25      -0.9486      2.00000
     26      -0.5512      2.00000
     27      -0.1153      2.00000
     28       2.1510      0.00000
     29       2.1514      0.00000
     30       2.3614      0.00000
     31       2.6237      0.00000
     32       2.7891      0.00000
     33       2.9021      0.00000
     34       3.2265      0.00000
     35       3.6122      0.00000
     36       3.9225      0.00000
     37       4.0097      0.00000
     38       4.4563      0.00000
     39       4.6891      0.00000
     40       6.9690      0.00000
     41       7.0655      0.00000
     42       7.1145      0.00000
     43       7.7702      0.00000
     44       7.9131      0.00000
     45       8.1270      0.00000
     46       8.4824      0.00000
     47       8.6458      0.00000
     48       8.8553      0.00000

 k-point  13 :       0.2931    0.0000    0.0000
  band No.  band energies     occupation 
      1     -13.4990      2.00000
      2     -13.1104      2.00000
      3     -12.8243      2.00000
      4     -12.6134      2.00000
      5     -12.4098      2.00000
      6     -12.3211      2.00000
      7      -5.5461      2.00000
      8      -5.1217      2.00000
      9      -4.6051      2.00000
     10      -4.3619      2.00000
     11      -4.0935      2.00000
     12      -3.9393      2.00000
     13      -3.7941      2.00000
     14      -3.3461      2.00000
     15      -3.2367      2.00000
     16      -2.8077      2.00000
     17      -2.7360      2.00000
     18      -1.7814      2.00000
     19      -1.7204      2.00000
     20      -1.6200      2.00000
     21      -1.5001      2.00000
[...]
     26      -0.3908      2.00000
     27       0.3381      2.00000
     28       2.1383      0.00000
     29       2.6486      0.00000
     30       2.8767      0.00000
     31       2.9015      0.00000
     32       3.1320      0.00000
     33       3.4228      0.00000
     34       3.8074      0.00000
     35       4.0847      0.00000
     36       4.1420      0.00000
     37       4.5058      0.00000
     38       4.6430      0.00000
     39       4.8186      0.00000
     40       5.3538      0.00000
     41       6.1939      0.00000
     42       6.3774      0.00000
     43       7.6625      0.00000
     44       8.0238      0.00000
     45       8.2856      0.00000
     46       8.4346      0.00000
     47       8.7099      0.00000
     48       8.8649      0.00000

 k-point  87 :       0.4828    0.0345    0.0000
  band No.  band energies     occupation 
      1     -12.5852      2.00000
      2     -12.3401      2.00000
      3     -12.2632      2.00000
      4     -12.0815      2.00000
      5     -11.8389      2.00000
      6     -11.7583      2.00000
      7      -6.3783      2.00000
      8      -5.7973      2.00000
      9      -5.4275      2.00000
     10      -5.1128      2.00000
     11      -4.9026      2.00000
     12      -4.6884      2.00000
     13      -4.3636      2.00000
     14      -4.0347      2.00000
     15      -3.3617      2.00000
     16      -3.2907      2.00000
     17      -3.2228      2.00000
     18      -2.0874      2.00000
     19      -2.0388      2.00000
     20      -1.9044      2.00000
     21      -1.6225      2.00000
     22      -1.3390      2.00000
     23      -1.1380      2.00000
     24      -0.7537      2.00000
     25      -0.6318      2.00000
     26      -0.3216      2.00000
     27       0.3296      2.00000
     28       2.1340      0.00000
     29       2.6445      0.00000
     30       2.8848      0.00000
     31       2.9060      0.00000
     32       3.1169      0.00000
     33       3.4174      0.00000
     34       3.7892      0.00000
     35       4.1004      0.00000
     36       4.1435      0.00000
     37       4.5719      0.00000
     38       4.6210      0.00000
     39       4.8646      0.00000
     40       5.3180      0.00000
     41       6.1751      0.00000
     42       6.3607      0.00000
     43       7.5799      0.00000
     44       7.9560      0.00000
     45       8.2314      0.00000
     46       8.3526      0.00000
     47       8.6607      0.00000
     48       8.8169      0.00000

 k-point  88 :       0.4885    0.0230    0.0000
  band No.  band energies     occupation 
      1     -12.5889      2.00000
      2     -12.3431      2.00000
      3     -12.2654      2.00000
      4     -12.0836      2.00000
      5     -11.8425      2.00000
      6     -11.7612      2.00000
      7      -6.3884      2.00000
      8      -5.8068      2.00000
      9      -5.4369      2.00000
     10      -5.1083      2.00000
     11      -4.8968      2.00000
     12      -4.6887      2.00000
     13      -4.3649      2.00000
     14      -4.0360      2.00000
     15      -3.3520      2.00000
     16      -3.3021      2.00000
     17      -3.2202      2.00000
     18      -2.0688      2.00000
     19      -2.0358      2.00000
     20      -1.9080      2.00000
     21      -1.6300      2.00000
     22      -1.2667      2.00000
     23      -1.0748      2.00000
     24      -0.7930      2.00000
     25      -0.6636      2.00000
     26      -0.2696      2.00000
     27       0.3221      2.00000
     28       2.1303      0.00000
     29       2.6420      0.00000
     30       2.8887      0.00000
     31       2.9115      0.00000
     32       3.1052      0.00000
     33       3.4136      0.00000
     34       3.7755      0.00000
     35       4.0888      0.00000
     36       4.1689      0.00000
     37       4.5946      0.00000
     38       4.6327      0.00000
     39       4.9003      0.00000
     40       5.2914      0.00000
     41       6.1612      0.00000
     42       6.3484      0.00000
     43       7.5185      0.00000
     44       7.9045      0.00000
     45       8.1907      0.00000
     46       8.2981      0.00000
     47       8.6283      0.00000
     48       8.8244      0.00000

 k-point  89 :       0.4943    0.0115    0.0000
  band No.  band energies     occupation 
      1     -12.5912      2.00000
      2     -12.3449      2.00000
      3     -12.2667      2.00000
      4     -12.0849      2.00000
      5     -11.8448      2.00000
      6     -11.7630      2.00000
      7      -6.3945      2.00000
      8      -5.8125      2.00000
      9      -5.4426      2.00000
     10      -5.1056      2.00000
     11      -4.8935      2.00000
     12      -4.6887      2.00000
     13      -4.3657      2.00000
     14      -4.0367      2.00000
     15      -3.3435      2.00000
     16      -3.3117      2.00000
     17      -3.2184      2.00000
     18      -2.0591      2.00000
     19      -2.0319      2.00000
     20      -1.9104      2.00000
     21      -1.6352      2.00000
     22      -1.2156      2.00000
     23      -1.0308      2.00000
     24      -0.8241      2.00000
     25      -0.6884      2.00000
     26      -0.2372      2.00000
     27       0.3168      2.00000
     28       2.1278      0.00000
     29       2.6407      0.00000
     30       2.8899      0.00000
     31       2.9159      0.00000
     32       3.0978      0.00000
     33       3.4112      0.00000
     34       3.7670      0.00000
     35       4.0794      0.00000
     36       4.1872      0.00000
     37       4.5864      0.00000
     38       4.6628      0.00000
     39       4.9228      0.00000
     40       5.2749      0.00000
     41       6.1526      0.00000
     42       6.3408      0.00000
     43       7.4806      0.00000
     44       7.8722      0.00000
     45       8.1647      0.00000
     46       8.2656      0.00000
     47       8.6267      0.00000
     48       8.7903      0.00000

 k-point  90 :       0.5000    0.0000    0.0000
  band No.  band energies     occupation 
      1     -12.5919      2.00000
      2     -12.3455      2.00000
      3     -12.2672      2.00000
      4     -12.0853      2.00000
      5     -11.8455      2.00000
      6     -11.7635      2.00000
      7      -6.3965      2.00000
      8      -5.8145      2.00000
      9      -5.4445      2.00000
     10      -5.1047      2.00000
     11      -4.8924      2.00000
     12      -4.6887      2.00000
     13      -4.3659      2.00000
     14      -4.0370      2.00000
     15      -3.3393      2.00000
     16      -3.3164      2.00000
     17      -3.2178      2.00000
     18      -2.0564      2.00000
     19      -2.0300      2.00000
     20      -1.9112      2.00000
     21      -1.6371      2.00000
     22      -1.1965      2.00000
     23      -1.0145      2.00000
     24      -0.8365      2.00000
     25      -0.6982      2.00000
     26      -0.2262      2.00000
     27       0.3149      2.00000
     28       2.1269      0.00000
     29       2.6403      0.00000
     30       2.8902      0.00000
     31       2.9176      0.00000
     32       3.0953      0.00000
     33       3.4104      0.00000
     34       3.7642      0.00000
     35       4.0760      0.00000
     36       4.1935      0.00000
     37       4.5830      0.00000
     38       4.6737      0.00000
     39       4.9305      0.00000
     40       5.2692      0.00000
     41       6.1497      0.00000
     42       6.3383      0.00000
     43       7.4678      0.00000
     44       7.8613      0.00000
     45       8.1559      0.00000
     46       8.2532      0.00000
     47       8.6040      0.00000
     48       8.7834      0.00000


--------------------------------------------------------------------------------------------------------


 soft charge-density along one line, spin component           1
         0         1         2         3         4         5         6         7         8         9
 total charge-density along one line
 
 pseudopotential strength for first ion, spin component:           1
 -9.083   0.000   0.000   0.000   0.000  -9.279   0.000   0.000
  0.000  -9.076  -0.000  -0.000   0.000   0.000  -9.272  -0.000
  0.000  -0.000  -9.069   0.000  -0.000   0.000  -0.000  -9.266
  0.000  -0.000   0.000  -9.076   0.000   0.000  -0.000   0.000
  0.000   0.000  -0.000   0.000  -9.083   0.000   0.000  -0.000
 -9.279   0.000   0.000   0.000   0.000  -9.465   0.000   0.000
  0.000  -9.272  -0.000  -0.000   0.000   0.000  -9.458  -0.000
  0.000  -0.000  -9.266   0.000  -0.000   0.000  -0.000  -9.452
  0.000  -0.000   0.000  -9.272   0.000   0.000  -0.000   0.000
  0.000   0.000  -0.000   0.000  -9.279   0.000   0.000  -0.000
  0.000   0.000  -0.005  -0.000  -0.000   0.000   0.000  -0.005
  0.000   0.000  -0.010  -0.000  -0.000   0.000   0.000  -0.010
  0.000   0.001   0.000  -0.000  -0.004   0.000   0.001   0.000
 -0.000  -0.000   0.001   0.000   0.000  -0.000  -0.000   0.001
 -0.004  -0.000  -0.000   0.001   0.000  -0.004  -0.000  -0.000
  0.000   0.001   0.000  -0.000  -0.005   0.000   0.001   0.000
 -0.000  -0.000   0.001   0.000   0.000  -0.000  -0.000   0.001
 -0.005  -0.000  -0.000   0.001   0.000  -0.005  -0.000  -0.000
 total augmentation occupancy for first ion, spin component:           1
  1.000   0.000   0.000   0.000   0.000   0.000   0.000   0.000   0.000   0.000   0.000   0.000   0.000   0.000   0.000   0.000
  0.000   1.000   0.000   0.000   0.000   0.000   0.000   0.000   0.000   0.000   0.000   0.000   0.000   0.000   0.000   0.000
  0.000   0.000   1.000   0.000   0.000   0.000   0.000   0.000   0.000   0.000   0.000   0.000   0.000   0.000   0.000   0.000
  0.000   0.000   0.000   1.000   0.000   0.000   0.000   0.000   0.000   0.000   0.000   0.000   0.000   0.000   0.000   0.000
  0.000   0.000   0.000   0.000   1.000   0.000   0.000   0.000   0.000   0.000   0.000   0.000   0.000   0.000   0.000   0.000
  0.000   0.000   0.000   0.000   0.000   0.000   0.000   0.000   0.000   0.000   0.000   0.000   0.000   0.000   0.000   0.000
  0.000   0.000   0.000   0.000   0.000   0.000   0.000   0.000   0.000   0.000   0.000   0.000   0.000   0.000   0.000   0.000
  0.000   0.000   0.000   0.000   0.000   0.000   0.000   0.000   0.000   0.000   0.000   0.000   0.000   0.000   0.000   0.000
  0.000   0.000   0.000   0.000   0.000   0.000   0.000   0.000   0.000   0.000   0.000   0.000   0.000   0.000   0.000   0.000
  0.000   0.000   0.000   0.000   0.000   0.000   0.000   0.000   0.000   0.000   0.000   0.000   0.000   0.000   0.000   0.000
  0.000   0.000   0.000   0.000   0.000   0.000   0.000   0.000   0.000   0.000   1.000   0.000   0.000   0.000   0.000   0.000
  0.000   0.000   0.000   0.000   0.000   0.000   0.000   0.000   0.000   0.000   0.000   0.000   0.000   0.000   0.000   0.000
  0.000   0.000   0.000   0.000   0.000   0.000   0.000   0.000   0.000   0.000   0.000   0.000   0.000   0.000   0.000   0.000
  0.000   0.000   0.000   0.000   0.000   0.000   0.000   0.000   0.000   0.000   0.000   0.000   0.000   0.000   0.000   0.000
  0.000   0.000   0.000   0.000   0.000   0.000   0.000   0.000   0.000   0.000   0.000   0.000   0.000   0.000   0.000   0.000
  0.000   0.000   0.000   0.000   0.000   0.000   0.000   0.000   0.000   0.000   0.000   0.000   0.000   0.000   0.000   0.000
  0.000   0.000   0.000   0.000   0.000   0.000   0.000   0.000   0.000   0.000   0.000   0.000   0.000   0.000   0.000   0.000
  0.000   0.000   0.000   0.000   0.000   0.000   0.000   0.000   0.000   0.000   0.000   0.000   0.000   0.000   0.000   0.000


------------------------ aborting loop because EDIFF is reached ----------------------------------------


 


 total charge     
 
# of ion     s       p       d       tot
----------------------------------------
  1        0.411   0.583   4.546   5.541
  2        0.395   0.543   4.648   5.587
  3        1.356   2.302   0.000   3.658
  4        1.358   2.308   0.000   3.666
  5        1.353   2.341   0.000   3.694
  6        1.353   2.342   0.000   3.695
  7        1.473   2.287   0.069   3.830
  8        1.471   2.282   0.068   3.821
  9        0.557   0.687   4.392   5.635
------------------------------------------------
tot        9.728  15.676  13.723  39.127
 
    CHARGE:  cpu time    0.14: real time    0.14
    FORLOC:  cpu time    0.00: real time    0.00
    FORNL :  cpu time    0.45: real time    0.45
    STRESS:  cpu time    0.78: real time    0.78
    FORCOR:  cpu time    0.03: real time    0.03
    FORHAR:  cpu time    0.00: real time    0.00

  Grimme's potential added to compensate for missing vdW interactions
  -------------------------------------------------------------------

  Parameters for Grimme's potential:
         C6(Jnm^6/mol)     R0(A)
   -----------------------------
   Mo      24.670          1.639
   S        5.570          1.683
   Se      12.640          1.771
   W       81.240          1.772

  Cutoff radius:   30.000 A

  Global scaling factor:    0.750 A

  Parameter d:   20.000 A

  Number of pair interactions contributing to Grimme's potential:   15394
  Estimated vdW energy (eV):  -2.72852

  FORCE on cell =-STRESS in cart. coord.  units (eV):
  Direction    XX          YY          ZZ          XY          YZ          ZX
  --------------------------------------------------------------------------------------
  Alpha Z    99.60308    99.60308    99.60308
  Ewald   19295.93095 19295.93095-20991.57547    -0.00000     0.00000    -0.00000
  Hartree 19790.56285 19790.56285-19691.68746    -0.00000    -0.00000    -0.00000
  E(xc)    -212.84628  -212.84629  -214.52046    -0.00000     0.00000    -0.00000
  Local  -39931.73286-39931.73337 39820.09526    -0.00044     0.00000    -0.00000
  n-local   313.46000   312.05666   332.25913    -0.36229     0.00099    -0.00287
  augment   -51.71532   -51.71482   -55.76424     0.00043     0.00000     0.00000
  Kinetic   693.44532   707.71324   707.73724   -18.63730     0.01153     0.04699
  Fock        0.00000     0.00000     0.00000     0.00000     0.00000     0.00000
  -------------------------------------------------------------------------------------
  Total       2.71649     2.71649     3.92126    -0.00000    -0.00000     0.00000
  in kB      14.15473    14.15473    20.43235    -0.00000    -0.00000     0.00000
  external pressure =       16.25 kB  Pullay stress =        0.00 kB


 VOLUME and BASIS-vectors are now :
 -----------------------------------------------------------------------------
  energy-cutoff  :      323.36
  volume of cell :      307.48
      direct lattice vectors                 reciprocal lattice vectors
     3.185000000  0.000000000  0.000000000     0.313971743  0.181271670  0.000000000
    -1.592500000  2.758290911  0.000000000     0.000000000  0.362543340  0.000000000
     0.000000000  0.000000000 35.000000000     0.000000000  0.000000000  0.028571429

  length of vectors
     3.185000000  3.185000000 35.000000000     0.362543340  0.362543340  0.028571429


 FORCES acting on ions
    electron-ion (+dipol)            ewald-force                    non-local-force                 convergence-correction
 -----------------------------------------------------------------------------------------------
   0.481E-06 -.347E-06 0.104E+04   -.167E-09 0.963E-10 -.104E+04   0.555E-16 0.000E+00 -.573E-01   -.102E-03 0.587E-04 0.273E-03
   0.416E-06 -.202E-06 -.102E+04   -.160E-09 0.922E-10 0.102E+04   -.139E-16 0.000E+00 0.972E-01   -.102E-03 0.586E-04 0.411E-01
   0.105E-05 0.211E-05 0.145E+04   0.877E-10 -.506E-10 -.145E+04   -.416E-16 0.000E+00 0.376E+01   0.187E-04 -.108E-04 -.203E+01
   -.968E-06 -.134E-05 0.619E+03   0.809E-10 -.467E-10 -.618E+03   0.416E-16 -.278E-16 -.419E+01   0.203E-04 -.117E-04 0.228E+01
   0.159E-05 0.213E-05 0.404E+03   -.885E-10 0.512E-10 -.406E+03   0.139E-16 0.694E-17 0.430E+01   -.118E-03 0.679E-04 -.196E+01
   -.556E-06 -.130E-05 -.428E+03   -.960E-10 0.554E-10 0.430E+03   0.000E+00 0.000E+00 -.429E+01   -.118E-03 0.679E-04 0.192E+01
   0.907E-06 -.241E-06 -.626E+03   0.810E-10 -.468E-10 0.628E+03   0.347E-17 0.000E+00 0.204E+01   0.145E-04 -.835E-05 -.399E+01
   0.572E-06 -.546E-06 -.142E+04   0.811E-10 -.468E-10 0.142E+04   -.139E-16 0.000E+00 -.177E+01   0.131E-04 -.755E-05 0.369E+01
   0.348E-06 0.411E-07 -.120E+02   0.180E-09 -.104E-09 0.120E+02   -.416E-16 0.000E+00 0.670E-03   0.331E-04 -.191E-04 -.246E-01
 -----------------------------------------------------------------------------------------------
   0.384E-05 0.298E-06 0.198E+00   -.560E-13 0.164E-12 -.114E-12   0.347E-17 -.208E-16 -.116E+00   -.339E-03 0.196E-03 -.799E-01
 
 
 POSITION                                       TOTAL-FORCE (eV/Angst)
 -----------------------------------------------------------------------------------
      1.59250      0.91943     11.26910         0.000000     -0.000000     -0.022837
      1.59250      0.91943     23.79392         0.000000     -0.000000      0.046059
      3.18500      0.00000      9.70832        -0.000000      0.000000     -0.082531
      3.18500      0.00000     12.82833        -0.000000      0.000000     -0.004557
      1.59250      0.91943     15.87526         0.000000     -0.000000      0.018232
      1.59250      0.91943     18.99898         0.000000     -0.000000     -0.047028
      3.18500      0.00000     22.08056        -0.000000      0.000000      0.049953
      3.18500      0.00000     25.50834        -0.000000      0.000000      0.038462
      3.18500      0.00000     17.43718        -0.000000      0.000000      0.004247
 -----------------------------------------------------------------------------------
    total drift:                               -0.000335      0.000196      0.001796


--------------------------------------------------------------------------------------------------------



  FREE ENERGIE OF THE ION-ELECTRON SYSTEM (eV)
  ---------------------------------------------------
  free  energy   TOTEN  =       -66.882507 eV

  energy  without entropy=      -66.882507  energy(sigma->0) =      -66.882507
 


--------------------------------------------------------------------------------------------------------


    POTLOK:  cpu time    0.03: real time    0.04


--------------------------------------------------------------------------------------------------------


     LOOP+:  cpu time   31.33: real time   31.38
    4ORBIT:  cpu time    0.00: real time    0.00
 


 total charge     
 
# of ion     s       p       d       tot
----------------------------------------
  1        0.411   0.583   4.546   5.541
  2        0.395   0.543   4.648   5.587
  3        1.356   2.302   0.000   3.658
  4        1.358   2.308   0.000   3.666
  5        1.353   2.341   0.000   3.694
  6        1.353   2.342   0.000   3.695
  7        1.473   2.287   0.069   3.830
  8        1.471   2.282   0.068   3.821
  9        0.557   0.687   4.392   5.635
------------------------------------------------
tot        9.728  15.676  13.723  39.127
 

 total amount of memory used by VASP on root node    56636. kBytes
========================================================================

   base      :      30000. kBytes
   nonl-proj :      18506. kBytes
   fftplans  :        579. kBytes
   grid      :       1039. kBytes
   one-center:         15. kBytes
   wavefun   :       6497. kBytes
 
  
  
 General timing and accounting informations for this job:
 ========================================================
  
                  Total CPU time used (sec):       38.131
                            User time (sec):       37.815
                          System time (sec):        0.316
                         Elapsed time (sec):       38.579
  
                   Maximum memory used (kb):      111772.
                   Average memory used (kb):           0.
  
                          Minor page faults:        22780
                          Major page faults:           36
                 Voluntary context switches:         2959
