PROCAR lm decomposed
# of k-points:   90         # of bands:  48         # of ions:   9

 k-point    1 :    0.50000000 0.00000000 0.00000000     weight = 0.01111111

band   1 # energy  -12.59193244 # occ.  2.00000000
 
ion      s     py     pz     px    dxy    dyz    dz2    dxz    dx2    tot
  1  0.000  0.000  0.000  0.000  0.000  0.000  0.000  0.000  0.000  0.001
  2  0.000  0.000  0.000  0.000  0.000  0.000  0.000  0.000  0.000  0.000
  3  0.001  0.000  0.000  0.000  0.000  0.000  0.000  0.000  0.000  0.001
  4  0.007  0.000  0.000  0.000  0.000  0.000  0.000  0.000  0.000  0.007
  5  0.300  0.000  0.007  0.000  0.000  0.000  0.000  0.000  0.000  0.307
  6  0.314  0.000  0.007  0.000  0.000  0.000  0.000  0.000  0.000  0.322
  7  0.002  0.000  0.000  0.000  0.000  0.000  0.000  0.000  0.000  0.002
  8  0.000  0.000  0.000  0.000  0.000  0.000  0.000  0.000  0.000  0.000
  9  0.030  0.014  0.000  0.041  0.044  0.000  0.000  0.000  0.015  0.144
tot  0.654  0.014  0.014  0.042  0.045  0.000  0.000  0.000  0.015  0.785
 
band   2 # energy  -12.34553720 # occ.  2.00000000
 
ion      s     py     pz     px    dxy    dyz    dz2    dxz    dx2    tot
  1  0.017  0.011  0.000  0.032  0.032  0.000  0.000  0.000  0.011  0.103
  2  0.000  0.000  0.000  0.000  0.000  0.000  0.000  0.000  0.000  0.000
  3  0.230  0.000  0.005  0.000  0.000  0.000  0.000  0.000  0.000  0.235
  4  0.324  0.000  0.005  0.000  0.000  0.000  0.000  0.000  0.000  0.330
  5  0.023  0.000  0.000  0.000  0.000  0.000  0.000  0.000  0.000  0.023
  6  0.064  0.000  0.001  0.000  0.000  0.000  0.000  0.000  0.000  0.065
  7  0.001  0.000  0.000  0.000  0.000  0.000  0.000  0.000  0.000  0.001
  8  0.000  0.000  0.000  0.000  0.000  0.000  0.000  0.000  0.000  0.000
  9  0.000  0.000  0.001  0.000  0.000  0.004  0.000  0.012  0.000  0.018
tot  0.659  0.011  0.012  0.032  0.033  0.004  0.000  0.013  0.011  0.774
 
band   3 # energy  -12.26720308 # occ.  2.00000000
 
ion      s     py     pz     px    dxy    dyz    dz2    dxz    dx2    tot
  1  0.003  0.002  0.000  0.005  0.005  0.000  0.000  0.001  0.002  0.017
  2  0.000  0.000  0.000  0.000  0.000  0.000  0.000  0.000  0.000  0.000
  3  0.068  0.000  0.001  0.000  0.000  0.000  0.000  0.000  0.000  0.069
  4  0.022  0.000  0.001  0.000  0.000  0.000  0.000  0.000  0.000  0.022
  5  0.306  0.000  0.003  0.000  0.000  0.000  0.000  0.000  0.000  0.310
  6  0.252  0.000  0.002  0.000  0.000  0.000  0.000  0.000  0.000  0.255
  7  0.004  0.000  0.000  0.000  0.000  0.000  0.000  0.000  0.000  0.004
  8  0.000  0.000  0.000  0.000  0.000  0.000  0.000  0.000  0.000  0.000
  9  0.000  0.000  0.006  0.000  0.000  0.029  0.000  0.086  0.000  0.121
tot  0.654  0.002  0.013  0.006  0.005  0.029  0.000  0.087  0.002  0.797
 
band   4 # energy  -12.08533769 # occ.  2.00000000
 
ion      s     py     pz     px    dxy    dyz    dz2    dxz    dx2    tot
  1  0.000  0.000  0.006  0.000  0.000  0.029  0.000  0.086  0.000  0.121
  2  0.000  0.000  0.000  0.000  0.000  0.000  0.000  0.000  0.000  0.000
  3  0.351  0.000  0.003  0.000  0.000  0.000  0.000  0.000  0.000  0.355
  4  0.297  0.000  0.002  0.000  0.000  0.000  0.000  0.000  0.000  0.299
  5  0.009  0.000  0.000  0.000  0.000  0.000  0.000  0.000  0.000  0.009
  6  0.002  0.000  0.000  0.000  0.000  0.000  0.000  0.000  0.000  0.002
  7  0.000  0.000  0.000  0.000  0.000  0.000  0.000  0.000  0.000  0.000
  8  0.000  0.000  0.000  0.000  0.000  0.000  0.000  0.000  0.000  0.000
  9  0.000  0.000  0.000  0.000  0.000  0.001  0.000  0.002  0.000  0.003
tot  0.659  0.000  0.011  0.001  0.000  0.029  0.000  0.088  0.000  0.789
 
band   5 # energy  -11.84550413 # occ.  2.00000000
 
ion      s     py     pz     px    dxy    dyz    dz2    dxz    dx2    tot
  1  0.000  0.000  0.000  0.000  0.000  0.000  0.000  0.000  0.000  0.000
  2  0.016  0.009  0.000  0.027  0.023  0.000  0.001  0.001  0.008  0.086
  3  0.000  0.000  0.000  0.000  0.000  0.000  0.000  0.000  0.000  0.000
  4  0.000  0.000  0.000  0.000  0.000  0.000  0.000  0.000  0.000  0.000
  5  0.000  0.000  0.000  0.000  0.000  0.000  0.000  0.000  0.000  0.000
  6  0.004  0.000  0.000  0.000  0.000  0.000  0.000  0.000  0.000  0.004
  7  0.440  0.000  0.005  0.000  0.000  0.000  0.000  0.000  0.000  0.445
  8  0.269  0.000  0.003  0.000  0.000  0.000  0.000  0.000  0.000  0.273
  9  0.000  0.000  0.000  0.000  0.000  0.000  0.000  0.001  0.000  0.001
tot  0.729  0.009  0.008  0.028  0.024  0.001  0.001  0.002  0.008  0.810
 
band   6 # energy  -11.76353772 # occ.  2.00000000
 
ion      s     py     pz     px    dxy    dyz    dz2    dxz    dx2    tot
  1  0.000  0.000  0.000  0.000  0.000  0.000  0.000  0.000  0.000  0.000
  2  0.000  0.000  0.005  0.000  0.000  0.023  0.000  0.068  0.000  0.098
  3  0.000  0.000  0.000  0.000  0.000  0.000  0.000  0.000  0.000  0.000
  4  0.000  0.000  0.000  0.000  0.000  0.000  0.000  0.000  0.000  0.000
  5  0.000  0.000  0.000  0.000  0.000  0.000  0.000  0.000  0.000  0.000
  6  0.002  0.000  0.000  0.000  0.000  0.000  0.000  0.000  0.000  0.002
  7  0.270  0.000  0.002  0.000  0.000  0.000  0.000  0.000  0.000  0.272
  8  0.448  0.000  0.003  0.000  0.000  0.000  0.000  0.000  0.000  0.453
  9  0.000  0.000  0.000  0.000  0.000  0.000  0.000  0.000  0.000  0.001
tot  0.720  0.000  0.011  0.001  0.001  0.023  0.000  0.069  0.000  0.825
 
band   7 # energy   -6.39652471 # occ.  2.00000000
 
ion      s     py     pz     px    dxy    dyz    dz2    dxz    dx2    tot
  1  0.002  0.000  0.000  0.000  0.001  0.000  0.000  0.000  0.000  0.004
  2  0.001  0.000  0.000  0.000  0.000  0.000  0.000  0.000  0.000  0.001
  3  0.000  0.000  0.000  0.001  0.000  0.000  0.000  0.000  0.000  0.001
  4  0.000  0.001  0.001  0.003  0.000  0.000  0.000  0.000  0.000  0.004
  5  0.009  0.035  0.006  0.105  0.000  0.000  0.000  0.000  0.000  0.155
  6  0.009  0.035  0.006  0.106  0.000  0.000  0.000  0.000  0.000  0.156
  7  0.000  0.000  0.000  0.001  0.000  0.000  0.000  0.000  0.000  0.002
  8  0.000  0.000  0.000  0.000  0.000  0.000  0.000  0.000  0.000  0.000
  9  0.164  0.007  0.000  0.021  0.061  0.000  0.019  0.000  0.020  0.292
tot  0.184  0.079  0.014  0.237  0.063  0.000  0.019  0.000  0.021  0.616
 
band   8 # energy   -5.81445509 # occ.  2.00000000
 
ion      s     py     pz     px    dxy    dyz    dz2    dxz    dx2    tot
  1  0.119  0.006  0.000  0.018  0.065  0.000  0.022  0.000  0.022  0.252
  2  0.000  0.000  0.000  0.000  0.000  0.000  0.000  0.000  0.000  0.000
  3  0.006  0.036  0.006  0.109  0.000  0.000  0.000  0.000  0.000  0.157
  4  0.005  0.039  0.006  0.117  0.000  0.000  0.000  0.000  0.000  0.167
  5  0.000  0.000  0.000  0.001  0.000  0.000  0.000  0.000  0.000  0.001
  6  0.000  0.001  0.000  0.004  0.000  0.000  0.000  0.000  0.000  0.006
  7  0.000  0.000  0.000  0.000  0.000  0.000  0.000  0.000  0.000  0.000
  8  0.000  0.000  0.000  0.000  0.000  0.000  0.000  0.000  0.000  0.000
  9  0.003  0.000  0.000  0.001  0.000  0.000  0.001  0.000  0.000  0.005
tot  0.134  0.083  0.012  0.249  0.065  0.000  0.023  0.000  0.022  0.589
 
band   9 # energy   -5.44448077 # occ.  2.00000000
 
ion      s     py     pz     px    dxy    dyz    dz2    dxz    dx2    tot
  1  0.000  0.000  0.000  0.000  0.000  0.000  0.000  0.000  0.000  0.000
  2  0.104  0.005  0.000  0.014  0.044  0.000  0.038  0.000  0.015  0.219
  3  0.000  0.000  0.000  0.000  0.000  0.000  0.000  0.000  0.000  0.000
  4  0.000  0.000  0.000  0.000  0.000  0.000  0.000  0.000  0.000  0.000
  5  0.000  0.001  0.000  0.004  0.000  0.000  0.000  0.000  0.000  0.005
  6  0.000  0.000  0.001  0.000  0.000  0.000  0.000  0.000  0.000  0.002
  7  0.003  0.045  0.003  0.135  0.000  0.000  0.000  0.001  0.000  0.187
  8  0.003  0.040  0.003  0.121  0.000  0.000  0.000  0.001  0.000  0.169
  9  0.001  0.000  0.001  0.001  0.000  0.000  0.001  0.000  0.000  0.004
tot  0.112  0.092  0.008  0.275  0.044  0.001  0.039  0.002  0.015  0.587
 
band  10 # energy   -5.10471349 # occ.  2.00000000
 
ion      s     py     pz     px    dxy    dyz    dz2    dxz    dx2    tot
  1  0.000  0.000  0.003  0.001  0.002  0.003  0.002  0.009  0.001  0.021
  2  0.000  0.000  0.000  0.001  0.000  0.001  0.001  0.002  0.000  0.005
  3  0.000  0.001  0.000  0.003  0.000  0.000  0.000  0.000  0.000  0.004
  4  0.001  0.004  0.011  0.012  0.000  0.000  0.000  0.000  0.000  0.028
  5  0.009  0.039  0.015  0.116  0.000  0.000  0.000  0.000  0.000  0.179
  6  0.008  0.037  0.010  0.110  0.000  0.000  0.000  0.000  0.000  0.165
  7  0.000  0.001  0.004  0.004  0.000  0.000  0.000  0.000  0.000  0.009
  8  0.000  0.000  0.000  0.000  0.000  0.000  0.000  0.000  0.000  0.000
  9  0.000  0.000  0.064  0.000  0.000  0.031  0.000  0.093  0.000  0.188
tot  0.019  0.082  0.107  0.247  0.002  0.035  0.003  0.104  0.001  0.599
 
band  11 # energy   -4.89237060 # occ.  2.00000000
 
ion      s     py     pz     px    dxy    dyz    dz2    dxz    dx2    tot
  1  0.000  0.000  0.051  0.000  0.001  0.027  0.000  0.080  0.000  0.159
  2  0.000  0.000  0.002  0.000  0.001  0.001  0.000  0.004  0.000  0.008
  3  0.007  0.037  0.005  0.110  0.000  0.000  0.000  0.000  0.000  0.159
  4  0.010  0.033  0.013  0.099  0.000  0.000  0.000  0.000  0.000  0.154
  5  0.000  0.001  0.013  0.002  0.000  0.000  0.000  0.000  0.000  0.016
  6  0.003  0.006  0.015  0.017  0.000  0.000  0.000  0.000  0.000  0.041
  7  0.000  0.001  0.003  0.004  0.000  0.000  0.000  0.000  0.000  0.009
  8  0.000  0.002  0.000  0.005  0.000  0.000  0.000  0.000  0.000  0.007
  9  0.000  0.001  0.005  0.004  0.013  0.001  0.009  0.003  0.004  0.041
tot  0.021  0.080  0.107  0.241  0.014  0.029  0.009  0.087  0.005  0.594
 
band  12 # energy   -4.68874685 # occ.  2.00000000
 
ion      s     py     pz     px    dxy    dyz    dz2    dxz    dx2    tot
  1  0.000  0.000  0.006  0.000  0.002  0.002  0.001  0.007  0.001  0.019
  2  0.001  0.000  0.042  0.000  0.001  0.022  0.000  0.066  0.000  0.132
  3  0.002  0.005  0.004  0.014  0.000  0.000  0.000  0.000  0.000  0.024
  4  0.000  0.003  0.001  0.008  0.000  0.000  0.000  0.000  0.000  0.012
  5  0.003  0.004  0.010  0.011  0.000  0.000  0.000  0.000  0.000  0.028
  6  0.000  0.000  0.021  0.000  0.000  0.000  0.000  0.000  0.000  0.022
  7  0.006  0.032  0.011  0.095  0.000  0.000  0.000  0.000  0.000  0.144
  8  0.005  0.040  0.005  0.120  0.000  0.000  0.000  0.000  0.000  0.170
  9  0.000  0.001  0.003  0.004  0.016  0.000  0.011  0.000  0.005  0.040
tot  0.018  0.084  0.101  0.253  0.018  0.025  0.012  0.074  0.006  0.591
 
band  13 # energy   -4.36590477 # occ.  2.00000000
 
ion      s     py     pz     px    dxy    dyz    dz2    dxz    dx2    tot
  1  0.000  0.002  0.004  0.006  0.042  0.001  0.023  0.004  0.014  0.097
  2  0.001  0.000  0.011  0.000  0.003  0.004  0.000  0.012  0.001  0.033
  3  0.008  0.006  0.035  0.018  0.000  0.000  0.000  0.000  0.000  0.067
  4  0.001  0.000  0.028  0.001  0.000  0.000  0.000  0.000  0.000  0.031
  5  0.009  0.001  0.069  0.002  0.000  0.000  0.000  0.000  0.000  0.080
  6  0.013  0.004  0.061  0.012  0.000  0.000  0.000  0.000  0.000  0.091
  7  0.001  0.009  0.001  0.026  0.000  0.000  0.000  0.000  0.000  0.036
  8  0.003  0.008  0.005  0.024  0.000  0.000  0.000  0.000  0.000  0.040
  9  0.000  0.004  0.001  0.013  0.092  0.000  0.056  0.000  0.031  0.198
tot  0.036  0.034  0.215  0.103  0.137  0.006  0.080  0.017  0.046  0.674
 
band  14 # energy   -4.03695683 # occ.  2.00000000
 
ion      s     py     pz     px    dxy    dyz    dz2    dxz    dx2    tot
  1  0.000  0.006  0.001  0.018  0.125  0.000  0.088  0.000  0.042  0.279
  2  0.000  0.000  0.001  0.000  0.002  0.000  0.000  0.001  0.001  0.007
  3  0.011  0.002  0.090  0.006  0.000  0.000  0.000  0.000  0.000  0.109
  4  0.016  0.006  0.083  0.018  0.000  0.000  0.000  0.000  0.000  0.123
  5  0.009  0.005  0.024  0.014  0.000  0.000  0.000  0.000  0.000  0.051
  6  0.003  0.000  0.031  0.000  0.000  0.000  0.000  0.000  0.000  0.034
  7  0.000  0.001  0.001  0.003  0.000  0.000  0.000  0.000  0.000  0.005
  8  0.001  0.001  0.002  0.002  0.000  0.000  0.000  0.000  0.000  0.005
  9  0.000  0.002  0.002  0.007  0.040  0.000  0.031  0.001  0.013  0.098
tot  0.040  0.022  0.235  0.067  0.168  0.001  0.119  0.002  0.056  0.711
 
band  15 # energy   -3.33925607 # occ.  2.00000000
 
ion      s     py     pz     px    dxy    dyz    dz2    dxz    dx2    tot
  1  0.000  0.000  0.000  0.000  0.000  0.000  0.000  0.000  0.000  0.001
  2  0.005  0.008  0.000  0.024  0.208  0.000  0.096  0.000  0.069  0.409
  3  0.000  0.000  0.000  0.000  0.000  0.000  0.000  0.000  0.000  0.000
  4  0.000  0.000  0.000  0.000  0.000  0.000  0.000  0.000  0.000  0.000
  5  0.000  0.000  0.007  0.000  0.000  0.000  0.000  0.000  0.000  0.007
  6  0.002  0.002  0.001  0.005  0.000  0.000  0.000  0.000  0.000  0.008
  7  0.013  0.003  0.115  0.009  0.002  0.000  0.004  0.000  0.001  0.146
  8  0.013  0.003  0.121  0.008  0.002  0.000  0.004  0.000  0.001  0.151
  9  0.000  0.000  0.001  0.001  0.005  0.000  0.006  0.000  0.002  0.016
tot  0.033  0.015  0.245  0.046  0.217  0.000  0.109  0.000  0.072  0.739
 
band  16 # energy   -3.31640468 # occ.  2.00000000
 
ion      s     py     pz     px    dxy    dyz    dz2    dxz    dx2    tot
  1  0.000  0.000  0.000  0.000  0.000  0.015  0.000  0.005  0.000  0.020
  2  0.000  0.000  0.000  0.000  0.000  0.000  0.000  0.000  0.000  0.000
  3  0.000  0.005  0.000  0.002  0.000  0.000  0.000  0.000  0.000  0.006
  4  0.000  0.006  0.000  0.002  0.000  0.000  0.000  0.000  0.000  0.008
  5  0.000  0.125  0.000  0.042  0.000  0.000  0.000  0.000  0.000  0.166
  6  0.000  0.124  0.000  0.041  0.000  0.000  0.000  0.000  0.000  0.166
  7  0.000  0.000  0.000  0.000  0.000  0.000  0.000  0.000  0.000  0.000
  8  0.000  0.000  0.000  0.000  0.000  0.000  0.000  0.000  0.000  0.000
  9  0.000  0.000  0.000  0.000  0.000  0.338  0.000  0.113  0.000  0.450
tot  0.000  0.260  0.000  0.087  0.000  0.353  0.000  0.118  0.000  0.817
 
band  17 # energy   -3.21780804 # occ.  2.00000000
 
ion      s     py     pz     px    dxy    dyz    dz2    dxz    dx2    tot
  1  0.000  0.000  0.000  0.000  0.000  0.348  0.000  0.116  0.000  0.464
  2  0.000  0.000  0.000  0.000  0.000  0.000  0.000  0.000  0.000  0.000
  3  0.000  0.116  0.000  0.039  0.000  0.000  0.000  0.000  0.000  0.155
  4  0.000  0.118  0.000  0.039  0.000  0.000  0.000  0.000  0.000  0.158
  5  0.000  0.005  0.000  0.002  0.000  0.000  0.000  0.000  0.000  0.006
  6  0.000  0.006  0.000  0.002  0.000  0.000  0.000  0.000  0.000  0.009
  7  0.000  0.000  0.000  0.000  0.000  0.000  0.000  0.000  0.000  0.000
  8  0.000  0.000  0.000  0.000  0.000  0.000  0.000  0.000  0.000  0.000
  9  0.000  0.000  0.000  0.000  0.000  0.016  0.000  0.005  0.000  0.021
tot  0.000  0.246  0.000  0.082  0.000  0.363  0.000  0.121  0.000  0.812
 
band  18 # energy   -2.05644968 # occ.  2.00000000
 
ion      s     py     pz     px    dxy    dyz    dz2    dxz    dx2    tot
  1  0.000  0.000  0.002  0.001  0.000  0.012  0.001  0.035  0.000  0.050
  2  0.000  0.000  0.000  0.001  0.000  0.002  0.002  0.006  0.000  0.012
  3  0.002  0.001  0.028  0.003  0.000  0.000  0.000  0.000  0.000  0.034
  4  0.004  0.000  0.045  0.000  0.000  0.000  0.000  0.000  0.000  0.049
  5  0.011  0.004  0.166  0.011  0.000  0.000  0.000  0.000  0.000  0.192
  6  0.010  0.004  0.154  0.013  0.000  0.000  0.000  0.000  0.000  0.181
  7  0.001  0.000  0.006  0.001  0.000  0.000  0.000  0.001  0.000  0.010
  8  0.000  0.000  0.001  0.000  0.000  0.000  0.000  0.000  0.000  0.001
  9  0.000  0.000  0.015  0.000  0.000  0.036  0.000  0.109  0.000  0.160
tot  0.029  0.010  0.417  0.030  0.000  0.050  0.003  0.150  0.000  0.690
 
band  19 # energy   -2.02999124 # occ.  2.00000000
 
ion      s     py     pz     px    dxy    dyz    dz2    dxz    dx2    tot
  1  0.000  0.000  0.000  0.000  0.000  0.000  0.000  0.000  0.000  0.000
  2  0.000  0.000  0.000  0.000  0.000  0.378  0.000  0.126  0.000  0.504
  3  0.000  0.000  0.000  0.000  0.000  0.000  0.000  0.000  0.000  0.000
  4  0.000  0.000  0.000  0.000  0.000  0.000  0.000  0.000  0.000  0.000
  5  0.000  0.001  0.000  0.000  0.000  0.000  0.000  0.000  0.000  0.001
  6  0.000  0.000  0.000  0.000  0.000  0.000  0.000  0.000  0.000  0.000
  7  0.000  0.122  0.000  0.041  0.000  0.004  0.000  0.001  0.000  0.169
  8  0.000  0.119  0.000  0.040  0.000  0.004  0.000  0.001  0.000  0.165
  9  0.000  0.000  0.000  0.000  0.000  0.000  0.000  0.000  0.000  0.000
tot  0.000  0.242  0.000  0.081  0.000  0.386  0.000  0.129  0.001  0.839
 
band  20 # energy   -1.91123686 # occ.  2.00000000
 
ion      s     py     pz     px    dxy    dyz    dz2    dxz    dx2    tot
  1  0.000  0.000  0.022  0.000  0.000  0.033  0.000  0.100  0.000  0.156
  2  0.000  0.000  0.000  0.000  0.000  0.001  0.000  0.004  0.000  0.006
  3  0.008  0.006  0.164  0.019  0.000  0.000  0.000  0.000  0.000  0.198
  4  0.007  0.008  0.152  0.023  0.000  0.000  0.000  0.000  0.000  0.189
  5  0.001  0.003  0.025  0.008  0.000  0.000  0.000  0.000  0.000  0.036
  6  0.002  0.001  0.046  0.004  0.000  0.000  0.000  0.000  0.000  0.054
  7  0.001  0.000  0.004  0.000  0.000  0.000  0.000  0.000  0.000  0.005
  8  0.000  0.000  0.001  0.000  0.000  0.000  0.000  0.000  0.000  0.002
  9  0.001  0.000  0.007  0.001  0.000  0.005  0.000  0.015  0.000  0.029
tot  0.019  0.019  0.421  0.056  0.000  0.040  0.001  0.119  0.000  0.675
 
band  21 # energy   -1.63706557 # occ.  2.00000000
 
ion      s     py     pz     px    dxy    dyz    dz2    dxz    dx2    tot
  1  0.000  0.000  0.000  0.000  0.000  0.000  0.000  0.000  0.000  0.001
  2  0.000  0.000  0.020  0.000  0.000  0.054  0.000  0.162  0.000  0.237
  3  0.000  0.000  0.001  0.000  0.000  0.000  0.000  0.000  0.000  0.001
  4  0.000  0.000  0.000  0.000  0.000  0.000  0.000  0.000  0.000  0.001
  5  0.000  0.000  0.010  0.001  0.000  0.000  0.000  0.000  0.000  0.012
  6  0.000  0.001  0.002  0.003  0.000  0.000  0.000  0.000  0.000  0.006
  7  0.011  0.007  0.181  0.021  0.000  0.000  0.000  0.000  0.000  0.220
  8  0.012  0.006  0.184  0.019  0.000  0.000  0.000  0.000  0.000  0.222
  9  0.001  0.000  0.003  0.001  0.000  0.000  0.000  0.001  0.000  0.006
tot  0.023  0.016  0.401  0.047  0.000  0.055  0.000  0.164  0.000  0.706
 
band  22 # energy   -1.19649381 # occ.  2.00000000
 
ion      s     py     pz     px    dxy    dyz    dz2    dxz    dx2    tot
  1  0.000  0.004  0.000  0.001  0.001  0.000  0.000  0.000  0.004  0.011
  2  0.000  0.000  0.000  0.000  0.000  0.001  0.000  0.000  0.000  0.001
  3  0.000  0.016  0.000  0.005  0.000  0.000  0.000  0.000  0.000  0.021
  4  0.000  0.014  0.000  0.005  0.000  0.000  0.000  0.000  0.000  0.019
  5  0.000  0.190  0.000  0.063  0.000  0.000  0.000  0.000  0.000  0.254
  6  0.000  0.191  0.000  0.064  0.000  0.000  0.000  0.000  0.000  0.254
  7  0.000  0.000  0.000  0.000  0.000  0.000  0.000  0.000  0.000  0.000
  8  0.000  0.001  0.000  0.000  0.000  0.000  0.000  0.000  0.000  0.001
  9  0.000  0.059  0.000  0.020  0.014  0.000  0.000  0.000  0.041  0.133
tot  0.000  0.475  0.000  0.158  0.015  0.001  0.000  0.000  0.045  0.695
 
band  23 # energy   -1.01453042 # occ.  2.00000000
 
ion      s     py     pz     px    dxy    dyz    dz2    dxz    dx2    tot
  1  0.000  0.049  0.000  0.016  0.020  0.000  0.000  0.000  0.059  0.144
  2  0.000  0.000  0.000  0.000  0.000  0.000  0.000  0.000  0.000  0.000
  3  0.000  0.189  0.000  0.063  0.000  0.000  0.000  0.000  0.000  0.253
  4  0.000  0.188  0.000  0.063  0.000  0.000  0.000  0.000  0.000  0.251
  5  0.000  0.016  0.000  0.005  0.000  0.000  0.000  0.000  0.000  0.022
  6  0.000  0.015  0.000  0.005  0.000  0.000  0.000  0.000  0.000  0.020
  7  0.000  0.000  0.000  0.000  0.000  0.000  0.000  0.000  0.000  0.000
  8  0.000  0.000  0.000  0.000  0.000  0.000  0.000  0.000  0.000  0.000
  9  0.000  0.005  0.000  0.002  0.001  0.000  0.000  0.000  0.004  0.012
tot  0.000  0.463  0.000  0.154  0.021  0.000  0.000  0.000  0.062  0.701
 
band  24 # energy   -0.83652142 # occ.  2.00000000
 
ion      s     py     pz     px    dxy    dyz    dz2    dxz    dx2    tot
  1  0.000  0.003  0.000  0.009  0.008  0.000  0.015  0.000  0.003  0.039
  2  0.000  0.000  0.001  0.001  0.000  0.000  0.000  0.000  0.000  0.002
  3  0.000  0.000  0.014  0.001  0.000  0.000  0.000  0.000  0.000  0.015
  4  0.000  0.000  0.004  0.000  0.000  0.000  0.000  0.000  0.000  0.005
  5  0.005  0.001  0.070  0.002  0.000  0.000  0.000  0.000  0.000  0.077
  6  0.004  0.001  0.073  0.002  0.000  0.000  0.000  0.000  0.000  0.080
  7  0.000  0.000  0.000  0.001  0.000  0.000  0.000  0.000  0.000  0.002
  8  0.000  0.000  0.003  0.000  0.000  0.000  0.000  0.000  0.000  0.003
  9  0.004  0.030  0.000  0.089  0.100  0.000  0.202  0.000  0.033  0.458
tot  0.013  0.035  0.165  0.105  0.108  0.000  0.218  0.000  0.036  0.681
 
band  25 # energy   -0.69821452 # occ.  2.00000000
 
ion      s     py     pz     px    dxy    dyz    dz2    dxz    dx2    tot
  1  0.003  0.024  0.000  0.073  0.091  0.000  0.244  0.000  0.030  0.466
  2  0.000  0.000  0.000  0.000  0.000  0.000  0.000  0.000  0.000  0.000
  3  0.004  0.000  0.078  0.001  0.000  0.000  0.000  0.000  0.000  0.084
  4  0.003  0.001  0.078  0.002  0.000  0.000  0.000  0.000  0.000  0.083
  5  0.000  0.000  0.008  0.001  0.000  0.000  0.000  0.000  0.000  0.010
  6  0.000  0.000  0.004  0.000  0.000  0.000  0.000  0.000  0.000  0.004
  7  0.000  0.000  0.000  0.000  0.000  0.000  0.000  0.000  0.000  0.000
  8  0.000  0.000  0.000  0.000  0.000  0.000  0.000  0.000  0.000  0.000
  9  0.001  0.002  0.000  0.007  0.010  0.000  0.027  0.000  0.003  0.051
tot  0.013  0.028  0.168  0.084  0.101  0.000  0.271  0.000  0.034  0.699
 
band  26 # energy   -0.22620290 # occ.  2.00000000
 
ion      s     py     pz     px    dxy    dyz    dz2    dxz    dx2    tot
  1  0.000  0.000  0.000  0.000  0.000  0.000  0.000  0.000  0.000  0.000
  2  0.001  0.028  0.000  0.085  0.103  0.000  0.235  0.000  0.034  0.486
  3  0.000  0.000  0.000  0.000  0.000  0.000  0.000  0.000  0.000  0.000
  4  0.000  0.000  0.000  0.000  0.000  0.000  0.000  0.000  0.000  0.000
  5  0.000  0.000  0.000  0.000  0.000  0.000  0.000  0.000  0.000  0.000
  6  0.000  0.000  0.000  0.000  0.000  0.000  0.000  0.000  0.000  0.001
  7  0.004  0.000  0.089  0.001  0.005  0.000  0.001  0.001  0.002  0.102
  8  0.005  0.000  0.097  0.001  0.005  0.000  0.001  0.001  0.002  0.111
  9  0.001  0.000  0.000  0.000  0.000  0.000  0.002  0.000  0.000  0.004
tot  0.010  0.029  0.187  0.087  0.113  0.001  0.238  0.002  0.038  0.704
 
band  27 # energy    0.31490638 # occ.  2.00000000
 
ion      s     py     pz     px    dxy    dyz    dz2    dxz    dx2    tot
  1  0.000  0.000  0.000  0.000  0.000  0.000  0.000  0.000  0.000  0.000
  2  0.000  0.046  0.000  0.015  0.016  0.000  0.000  0.000  0.047  0.123
  3  0.000  0.000  0.000  0.000  0.000  0.000  0.000  0.000  0.000  0.000
  4  0.000  0.000  0.000  0.000  0.000  0.000  0.000  0.000  0.000  0.000
  5  0.000  0.000  0.000  0.000  0.000  0.000  0.000  0.000  0.000  0.000
  6  0.000  0.000  0.000  0.000  0.000  0.000  0.000  0.000  0.000  0.000
  7  0.000  0.219  0.000  0.073  0.000  0.001  0.000  0.000  0.000  0.293
  8  0.000  0.220  0.000  0.073  0.000  0.001  0.000  0.000  0.000  0.295
  9  0.000  0.000  0.000  0.000  0.000  0.000  0.000  0.000  0.000  0.001
tot  0.000  0.485  0.000  0.162  0.016  0.003  0.000  0.001  0.047  0.713
 
band  28 # energy    2.12689630 # occ.  0.00000000
 
ion      s     py     pz     px    dxy    dyz    dz2    dxz    dx2    tot
  1  0.000  0.003  0.000  0.001  0.222  0.000  0.000  0.000  0.667  0.894
  2  0.000  0.000  0.000  0.000  0.000  0.000  0.000  0.000  0.000  0.000
  3  0.000  0.014  0.000  0.005  0.000  0.000  0.000  0.000  0.000  0.019
  4  0.000  0.015  0.000  0.005  0.000  0.000  0.000  0.000  0.000  0.020
  5  0.000  0.000  0.000  0.000  0.000  0.000  0.000  0.000  0.000  0.000
  6  0.000  0.000  0.000  0.000  0.000  0.000  0.000  0.000  0.000  0.000
  7  0.000  0.000  0.000  0.000  0.000  0.000  0.000  0.000  0.000  0.000
  8  0.000  0.000  0.000  0.000  0.000  0.000  0.000  0.000  0.000  0.000
  9  0.000  0.000  0.000  0.000  0.000  0.000  0.000  0.000  0.000  0.000
tot  0.000  0.032  0.000  0.011  0.222  0.000  0.000  0.000  0.667  0.933
 
band  29 # energy    2.64029879 # occ.  0.00000000
 
ion      s     py     pz     px    dxy    dyz    dz2    dxz    dx2    tot
  1  0.009  0.003  0.000  0.009  0.217  0.000  0.505  0.000  0.072  0.815
  2  0.000  0.000  0.000  0.000  0.000  0.000  0.000  0.000  0.000  0.000
  3  0.002  0.008  0.004  0.025  0.000  0.000  0.000  0.000  0.000  0.038
  4  0.002  0.008  0.004  0.023  0.000  0.000  0.000  0.000  0.000  0.037
  5  0.000  0.000  0.001  0.000  0.000  0.000  0.000  0.000  0.000  0.001
  6  0.000  0.000  0.000  0.000  0.000  0.000  0.000  0.000  0.000  0.001
  7  0.000  0.000  0.000  0.000  0.000  0.000  0.000  0.000  0.000  0.000
  8  0.000  0.000  0.000  0.000  0.000  0.000  0.000  0.000  0.000  0.000
  9  0.000  0.000  0.000  0.000  0.001  0.000  0.004  0.000  0.000  0.006
tot  0.014  0.019  0.008  0.057  0.217  0.000  0.510  0.000  0.072  0.898
 
band  30 # energy    2.89024115 # occ.  0.00000000
 
ion      s     py     pz     px    dxy    dyz    dz2    dxz    dx2    tot
  1  0.000  0.000  0.000  0.000  0.000  0.000  0.000  0.000  0.000  0.000
  2  0.000  0.002  0.000  0.001  0.188  0.000  0.000  0.000  0.563  0.753
  3  0.000  0.000  0.000  0.000  0.000  0.000  0.000  0.000  0.000  0.000
  4  0.000  0.000  0.000  0.000  0.000  0.000  0.000  0.000  0.000  0.000
  5  0.000  0.001  0.000  0.000  0.000  0.000  0.000  0.000  0.000  0.002
  6  0.000  0.002  0.000  0.001  0.000  0.000  0.000  0.000  0.000  0.002
  7  0.000  0.009  0.000  0.003  0.000  0.001  0.000  0.000  0.001  0.014
  8  0.000  0.008  0.000  0.003  0.000  0.001  0.000  0.000  0.001  0.013
  9  0.000  0.000  0.000  0.000  0.041  0.000  0.000  0.000  0.123  0.165
tot  0.000  0.022  0.000  0.007  0.229  0.002  0.000  0.001  0.688  0.949
 
band  31 # energy    2.91758904 # occ.  0.00000000
 
ion      s     py     pz     px    dxy    dyz    dz2    dxz    dx2    tot
  1  0.000  0.000  0.000  0.000  0.000  0.000  0.000  0.000  0.000  0.000
  2  0.000  0.001  0.000  0.000  0.041  0.000  0.000  0.000  0.122  0.163
  3  0.000  0.000  0.000  0.000  0.000  0.000  0.000  0.000  0.000  0.000
  4  0.000  0.000  0.000  0.000  0.000  0.000  0.000  0.000  0.000  0.000
  5  0.000  0.008  0.000  0.003  0.000  0.000  0.000  0.000  0.000  0.011
  6  0.000  0.007  0.000  0.002  0.000  0.000  0.000  0.000  0.000  0.010
  7  0.000  0.002  0.000  0.001  0.000  0.000  0.000  0.000  0.000  0.003
  8  0.000  0.003  0.000  0.001  0.000  0.000  0.000  0.000  0.000  0.004
  9  0.000  0.002  0.000  0.001  0.187  0.000  0.000  0.000  0.562  0.752
tot  0.000  0.023  0.000  0.008  0.228  0.001  0.000  0.000  0.684  0.943
 
band  32 # energy    3.09527310 # occ.  0.00000000
 
ion      s     py     pz     px    dxy    dyz    dz2    dxz    dx2    tot
  1  0.000  0.000  0.000  0.000  0.001  0.000  0.001  0.000  0.000  0.002
  2  0.000  0.004  0.000  0.011  0.150  0.000  0.470  0.001  0.050  0.686
  3  0.000  0.000  0.000  0.000  0.000  0.000  0.000  0.000  0.000  0.000
  4  0.000  0.000  0.000  0.000  0.000  0.000  0.000  0.000  0.000  0.000
  5  0.000  0.001  0.000  0.003  0.000  0.000  0.000  0.000  0.000  0.004
  6  0.002  0.000  0.001  0.001  0.000  0.000  0.000  0.000  0.000  0.003
  7  0.004  0.007  0.003  0.020  0.001  0.001  0.000  0.004  0.000  0.040
  8  0.002  0.007  0.003  0.022  0.001  0.002  0.000  0.005  0.000  0.042
  9  0.000  0.000  0.000  0.000  0.010  0.000  0.040  0.000  0.003  0.056
tot  0.008  0.019  0.007  0.057  0.163  0.003  0.512  0.010  0.054  0.834
 
band  33 # energy    3.41044379 # occ.  0.00000000
 
ion      s     py     pz     px    dxy    dyz    dz2    dxz    dx2    tot
  1  0.001  0.000  0.000  0.000  0.002  0.000  0.002  0.001  0.001  0.007
  2  0.000  0.001  0.000  0.002  0.014  0.000  0.035  0.001  0.005  0.058
  3  0.000  0.000  0.000  0.000  0.000  0.000  0.000  0.000  0.000  0.000
  4  0.000  0.000  0.000  0.001  0.000  0.000  0.000  0.000  0.000  0.002
  5  0.001  0.007  0.001  0.022  0.000  0.000  0.000  0.000  0.000  0.032
  6  0.001  0.008  0.002  0.023  0.000  0.000  0.000  0.000  0.000  0.034
  7  0.000  0.001  0.001  0.003  0.000  0.000  0.000  0.000  0.000  0.006
  8  0.000  0.000  0.000  0.001  0.000  0.000  0.000  0.000  0.000  0.003
  9  0.012  0.004  0.000  0.011  0.186  0.000  0.490  0.000  0.062  0.763
tot  0.016  0.021  0.005  0.063  0.202  0.001  0.527  0.002  0.067  0.904
 
band  34 # energy    3.76416079 # occ.  0.00000000
 
ion      s     py     pz     px    dxy    dyz    dz2    dxz    dx2    tot
  1  0.000  0.000  0.000  0.000  0.000  0.078  0.000  0.235  0.000  0.314
  2  0.000  0.000  0.000  0.000  0.000  0.004  0.000  0.013  0.000  0.018
  3  0.019  0.002  0.053  0.006  0.000  0.000  0.000  0.000  0.000  0.079
  4  0.026  0.002  0.043  0.007  0.000  0.000  0.000  0.000  0.000  0.079
  5  0.014  0.001  0.005  0.002  0.000  0.000  0.000  0.000  0.000  0.021
  6  0.007  0.001  0.008  0.002  0.000  0.000  0.000  0.000  0.000  0.017
  7  0.002  0.000  0.001  0.000  0.000  0.000  0.000  0.001  0.000  0.005
  8  0.001  0.000  0.003  0.000  0.000  0.000  0.000  0.000  0.000  0.004
  9  0.000  0.000  0.000  0.001  0.001  0.023  0.000  0.069  0.000  0.094
tot  0.069  0.006  0.114  0.017  0.001  0.106  0.001  0.317  0.000  0.631
 
band  35 # energy    4.07604715 # occ.  0.00000000
 
ion      s     py     pz     px    dxy    dyz    dz2    dxz    dx2    tot
  1  0.000  0.000  0.000  0.000  0.000  0.019  0.000  0.057  0.000  0.076
  2  0.000  0.000  0.001  0.001  0.000  0.053  0.000  0.160  0.000  0.215